_id,band_gap,formula,atomic_numbers_min,atomic_numbers_mean,atomic_numbers_max,num_sites,density,distance_max,distance_mean,distance_min,num_edges,degree_assortativity_coefficient,neighbor_degree_min,neighbor_degree_mean,neighbor_degree_max,graph_clique_number,average_clustering,diameter,radius,global_efficiency,local_efficiency,pagerank_min,pagerank_mean,pagerank_max,adamic_adar_max,adamic_adar_mean,s_metric,min_formula_band_gap,max_formula_band_gap,mean_formula_band_gap
6141da95baaf234b352903ac,1.0943999999999998,Mo63 W1 S126,16.0,24.926315789473684,74.0,190.0,2.031392023881028,14.81829839810725,9.202859083924558,2.416933336003759,378.0,-0.9831571611104665,3.0,4.936842105263158,6.0,2.0,0.0,11.0,11.0,0.2044957511624351,0.0,0.004055071481932315,0.005263157894736839,0.007797538150332789,1.8204784532536746,0.04932051936269593,6714.0,0.6457999999999999,1.1271,1.0590126315789474
6141da984e27a1844a5f0270,1.1458,Mo63 W1 Se1 S126,16.0,24.973821989528794,74.0,191.0,2.0470128662062193,14.81829839810725,9.20369044512728,2.416933336003759,381.0,-0.9914443602906119,3.0,4.968586387434555,6.0,2.0,0.0,11.0,11.0,0.20447848560002435,0.0,0.004033035247933726,0.005235602094240835,0.007711544185025864,1.8204784532536746,0.04931954608624209,6813.0,1.1212,1.1958,1.1463284916201117
6141daaa31cf3ef3d4a9efb2,0.4006999999999999,Mo63 Se1 S126,16.0,24.71578947368421,42.0,190.0,2.01064336705395,14.81829839810725,9.20460522129015,2.416933336003759,375.0,-0.9853003294753762,2.6666666666666665,4.968421052631579,6.0,2.0,0.0,11.0,10.0,0.2036093299627313,0.0,0.0031032856561492147,0.005263157894736839,0.008179265352670257,2.8853900817779268,0.0489199443369617,6633.0,0.1244,0.4337999999999999,0.37523746438746436
6141daae9cbada84a8676a15,1.8076,Mo63 W1 Se2 S126,16.0,25.020833333333332,74.0,192.0,2.062633708531411,14.81829839810725,9.204493652765017,2.416933336003759,384.0,-1.0,3.0,5.0,6.0,2.0,0.0,11.0,11.0,0.2044595166323097,0.0,0.004011523522002345,0.005208333333333331,0.007601952955995299,1.8204784532536746,0.04931584583967819,6912.0,1.8056,1.8104,1.8084216666666666
6141dab54e27a1844a5f0274,1.143,Mo63 W1 Se1 S126,16.0,24.973821989528794,74.0,191.0,2.0470128662062193,14.81829839810725,9.203690445134214,2.416933336003759,381.0,-0.9914443602906119,3.0,4.968586387434555,6.0,2.0,0.0,11.0,11.0,0.20447848560002427,0.0,0.004033035247933726,0.005235602094240836,0.007711544185025864,1.8204784532536746,0.049319546086242096,6813.0,1.1212,1.1958,1.1463284916201117
6141dab9baaf234b352903b0,1.1044,Mo63 W1 S126,16.0,24.926315789473684,74.0,190.0,2.031392023881028,14.81829839810725,9.202997615957779,2.416933336003759,378.0,-0.9831571611104665,3.0,4.936842105263158,6.0,2.0,0.0,11.0,11.0,0.20449343054607938,0.0,0.004055166591169985,0.005263157894736839,0.00776074497063582,1.8204784532536746,0.04932051936269593,6714.0,0.6457999999999999,1.1271,1.0590126315789474
6141dab9ee0a3fd43fb47c25,0.3363,Mo63 Se2 S126,16.0,24.76439790575916,42.0,191.0,2.0262642093791414,14.81829839810725,9.205343140235433,2.416933336003759,378.0,-0.9933560245064674,2.6666666666666665,5.0,6.0,2.0,0.0,11.0,10.0,0.20360265847867567,0.0,0.0030865806740578215,0.005235602094240835,0.008123386636999748,2.8853900817779268,0.048923187329413226,6732.0,0.2535,0.4375,0.36620928381962864
6141dabb3ac25c70a5c6c943,0.3874000000000001,Mo63 S126,16.0,24.666666666666668,42.0,189.0,1.9950225247287592,14.81829839810725,9.203951225805799,2.416933336003759,372.0,-0.9775503658998795,2.6666666666666665,4.936507936507937,6.0,2.0,0.0,11.0,10.0,0.20361783918860982,0.0,0.003120972762489822,0.005291005291005287,0.008289323813617477,2.8853900817779268,0.04891381934034083,6534.0,0.0938999999999999,0.537,0.37681101928374655
6141dabe9cbada84a8676a17,1.8071,Mo63 W1 Se2 S126,16.0,25.020833333333332,74.0,192.0,2.062633708531411,14.81829839810725,9.204493652765017,2.416933336003759,384.0,-1.0,3.0,5.0,6.0,2.0,0.0,11.0,11.0,0.2044595166323097,0.0,0.004011523522002345,0.005208333333333331,0.007601952955995299,1.8204784532536746,0.04931584583967819,6912.0,1.8056,1.8104,1.8084216666666666
6141dac54e27a1844a5f0276,1.1455,Mo63 W1 Se1 S126,16.0,24.973821989528794,74.0,191.0,2.0470128662062193,14.81829839810725,9.203690445228327,2.416933336003759,381.0,-0.9914443602906119,3.0,4.968586387434554,6.0,2.0,0.0,11.0,11.0,0.20447848560002418,0.0,0.004033035247933726,0.005235602094240836,0.007711544185025864,1.8204784532536746,0.04931954608624209,6813.0,1.1212,1.1958,1.1463284916201117
6141dacbbaaf234b352903b2,1.0916,Mo63 W1 S126,16.0,24.926315789473684,74.0,190.0,2.031392023881028,14.81829839810725,9.202859084132664,2.416933336003759,378.0,-0.9831571611104665,3.0,4.936842105263158,6.0,2.0,0.0,11.0,11.0,0.20449575116243507,0.0,0.004055071481932315,0.00526315789473684,0.007797538150332789,1.8204784532536746,0.04932051936269593,6714.0,0.6457999999999999,1.1271,1.0590126315789474
6141dad44e27a1844a5f0278,1.1408,Mo63 W1 Se1 S126,16.0,24.973821989528794,74.0,191.0,2.0470128662062193,14.81829839810725,9.203690445078664,2.416933336003759,381.0,-0.9914443602906119,3.0,4.968586387434555,6.0,2.0,0.0,11.0,11.0,0.20447848560002457,0.0,0.004033035247933726,0.005235602094240836,0.007711544185025864,1.8204784532536746,0.049319546086242096,6813.0,1.1212,1.1958,1.1463284916201117
6141dad59cbada84a8676a19,1.8066,Mo63 W1 Se2 S126,16.0,25.020833333333332,74.0,192.0,2.062633708531411,14.81829839810725,9.204493652765015,2.416933336003759,384.0,-1.0,3.0,5.0,6.0,2.0,0.0,11.0,11.0,0.2044595166323097,0.0,0.004011523522002345,0.005208333333333331,0.007601952955995299,1.8204784532536746,0.049315845839678185,6912.0,1.8056,1.8104,1.8084216666666666
6141dae13ac25c70a5c6c945,0.3707,Mo63 S126,16.0,24.666666666666668,42.0,189.0,1.9950225247287592,14.81829839810725,9.203093377844107,2.416933336003759,372.0,-0.9714693662288856,2.6,4.937918871252204,6.0,2.0,0.0,11.0,10.0,0.20367053034650195,0.0,0.0031229617879952624,0.005291005291005289,0.00833512565529378,2.8853900817779268,0.04892951704240725,6542.0,0.0938999999999999,0.537,0.37681101928374655
6141dae9ee0a3fd43fb47c2b,0.3601999999999999,Mo63 Se2 S126,16.0,24.76439790575916,42.0,191.0,2.0262642093791414,14.81829839810725,9.205343140342146,2.416933336003759,378.0,-0.9933560245064674,2.6666666666666665,5.0,6.0,2.0,0.0,11.0,10.0,0.20360265847867556,0.0,0.0030865806740578215,0.005235602094240836,0.008123386636999748,2.8853900817779268,0.048923187329413226,6732.0,0.2535,0.4375,0.36620928381962864
6141daed31cf3ef3d4a9efba,0.3943,Mo63 Se1 S126,16.0,24.71578947368421,42.0,190.0,2.01064336705395,14.81829839810725,9.204605221377436,2.416933336003759,375.0,-0.9853003294753762,2.6666666666666665,4.968421052631579,6.0,2.0,0.0,11.0,10.0,0.2036093299627313,0.0,0.0031032856561492147,0.005263157894736839,0.008179265352670257,2.8853900817779268,0.048919944336961695,6633.0,0.1244,0.4337999999999999,0.37523746438746436
6141daf59cbada84a8676a1d,1.8067,Mo63 W1 Se2 S126,16.0,25.020833333333332,74.0,192.0,2.062633708531411,14.81829839810725,9.204493652765015,2.416933336003759,384.0,-1.0,3.0,5.0,6.0,2.0,0.0,11.0,11.0,0.2044595166323097,0.0,0.004011523522002345,0.005208333333333331,0.007601952955995299,1.8204784532536746,0.04931584583967819,6912.0,1.8056,1.8104,1.8084216666666666
6141dafaee0a3fd43fb47c2d,0.3773,Mo63 Se2 S126,16.0,24.76439790575916,42.0,191.0,2.0262642093791414,14.81829839810725,9.205343140313872,2.416933336003759,378.0,-0.9933560245064674,2.6666666666666665,5.0,6.0,2.0,0.0,11.0,10.0,0.2036026584786761,0.0,0.0030865806740578215,0.005235602094240836,0.008123386636999748,2.8853900817779268,0.048923187329413226,6732.0,0.2535,0.4375,0.36620928381962864
6141db0a4e27a1844a5f027c,1.1461,Mo63 W1 Se1 S126,16.0,24.973821989528794,74.0,191.0,2.0470128662062193,14.81829839810725,9.203690445102131,2.4169333360037593,381.0,-0.9914443602906119,3.0,4.968586387434555,6.0,2.0,0.0,11.0,11.0,0.20447848560002468,0.0,0.004033035247933726,0.005235602094240835,0.007711544185025864,1.8204784532536746,0.04931954608624209,6813.0,1.1212,1.1958,1.1463284916201117
6141db0aee0a3fd43fb47c2f,0.3528,Mo63 Se2 S126,16.0,24.76439790575916,42.0,191.0,2.0262642093791414,14.81829839810725,9.205343140197238,2.416933336003759,378.0,-0.9933560245064674,2.6666666666666665,5.0,6.0,2.0,0.0,11.0,10.0,0.20360265847867626,0.0,0.0030865806740578215,0.005235602094240836,0.008123386636999748,2.8853900817779268,0.04892318732941323,6732.0,0.2535,0.4375,0.36620928381962864
6141db179cbada84a8676a21,1.8099,Mo63 W1 Se2 S126,16.0,25.020833333333332,74.0,192.0,2.062633708531411,14.81829839810725,9.204493652765017,2.416933336003759,384.0,-1.0,3.0,5.0,6.0,2.0,0.0,11.0,11.0,0.2044595166323097,0.0,0.004011523522002345,0.005208333333333331,0.007601952955995299,1.8204784532536746,0.04931584583967819,6912.0,1.8056,1.8104,1.8084216666666666
6141db17baaf234b352903b4,1.0955,Mo63 W1 S126,16.0,24.926315789473684,74.0,190.0,2.031392023881028,14.81829839810725,9.202859084115987,2.416933336003759,378.0,-0.9831571611104665,3.0,4.936842105263157,6.0,2.0,0.0,11.0,11.0,0.20449575116243507,0.0,0.004055071481932315,0.005263157894736839,0.007797538150332789,1.8204784532536746,0.04932051936269592,6714.0,0.6457999999999999,1.1271,1.0590126315789474
6141db2131cf3ef3d4a9efc0,0.4049999999999999,Mo63 Se1 S126,16.0,24.71578947368421,42.0,190.0,2.01064336705395,14.81829839810725,9.20431404350246,2.416933336003759,375.0,-0.9829536387785947,2.6,4.966315789473684,6.0,2.0,0.0,11.0,10.0,0.20363881284100316,0.0,0.0031057102812884056,0.005263157894736841,0.008270822561203069,2.8853900817779268,0.048919944336961695,6635.0,0.1244,0.4337999999999999,0.37523746438746436
6141db2c3ac25c70a5c6c947,0.3082,Mo63 S126,16.0,24.666666666666668,42.0,189.0,1.9950225247287592,14.81829839810725,9.20352409044476,2.416933336003759,372.0,-0.9727300115649621,2.6,4.932275132275131,6.0,2.0,0.0,11.0,10.0,0.20364151558851057,0.0,0.0031325779122690764,0.005291005291005289,0.008293679489101397,2.8853900817779268,0.04891381934034082,6538.0,0.0938999999999999,0.537,0.37681101928374655
6141db33ee0a3fd43fb47c31,0.358,Mo63 Se2 S126,16.0,24.76439790575916,42.0,191.0,2.0262642093791414,14.81829839810725,9.205343140322947,2.416933336003759,378.0,-0.9933560245064674,2.6666666666666665,5.0,6.0,2.0,0.0,11.0,10.0,0.2036026584786758,0.0,0.0030865806740578215,0.005235602094240836,0.008123386636999748,2.8853900817779268,0.048923187329413226,6732.0,0.2535,0.4375,0.36620928381962864
6141db384e27a1844a5f0282,1.1377,Mo63 W1 Se1 S126,16.0,24.973821989528794,74.0,191.0,2.0470128662062193,14.81829839810725,9.203690445136829,2.416933336003759,381.0,-0.9914443602906119,3.0,4.968586387434555,6.0,2.0,0.0,11.0,11.0,0.20447848560002418,0.0,0.004033035247933726,0.005235602094240837,0.007711544185025864,1.8204784532536746,0.049319546086242096,6813.0,1.1212,1.1958,1.1463284916201117
6141db54ee0a3fd43fb47c33,0.3585,Mo63 Se2 S126,16.0,24.76439790575916,42.0,191.0,2.0262642093791414,14.81829839810725,9.205343140313872,2.416933336003759,378.0,-0.9933560245064674,2.6666666666666665,5.0,6.0,2.0,0.0,11.0,10.0,0.2036026584786757,0.0,0.0030865806740578215,0.005235602094240835,0.008123386636999748,2.8853900817779268,0.048923187329413226,6732.0,0.2535,0.4375,0.36620928381962864
6141db574e27a1844a5f0286,1.1385,Mo63 W1 Se1 S126,16.0,24.973821989528794,74.0,191.0,2.0470128662062193,14.81829839810725,9.203690445102128,2.416933336003759,381.0,-0.9914443602906119,3.0,4.968586387434555,6.0,2.0,0.0,11.0,11.0,0.20447848560002468,0.0,0.004033035247933726,0.005235602094240836,0.007711544185025864,1.8204784532536746,0.04931954608624209,6813.0,1.1212,1.1958,1.1463284916201117
6141db669cbada84a8676a27,1.8065,Mo63 W1 Se2 S126,16.0,25.020833333333332,74.0,192.0,2.062633708531411,14.81829839810725,9.204493652765015,2.416933336003759,384.0,-1.0,3.0,5.0,6.0,2.0,0.0,11.0,11.0,0.2044595166323097,0.0,0.004011523522002345,0.005208333333333331,0.007601952955995299,1.8204784532536746,0.04931584583967819,6912.0,1.8056,1.8104,1.8084216666666666
6141db674e27a1844a5f0288,1.145,Mo63 W1 Se1 S126,16.0,24.973821989528794,74.0,191.0,2.0470128662062193,14.81829839810725,9.203690445156266,2.416933336003759,381.0,-0.9914443602906119,3.0,4.968586387434555,6.0,2.0,0.0,11.0,11.0,0.2044784856000242,0.0,0.004033035247933726,0.005235602094240835,0.007711544185025864,1.8204784532536746,0.049319546086242096,6813.0,1.1212,1.1958,1.1463284916201117
6141db70baaf234b352903bc,1.1177,Mo63 W1 S126,16.0,24.926315789473684,74.0,190.0,2.031392023881028,14.81829839810725,9.203088286694406,2.416933336003759,378.0,-0.9831571611104665,3.0,4.936842105263158,6.0,2.0,0.0,11.0,11.0,0.2044934305460794,0.0,0.004055366153099715,0.005263157894736839,0.007755689592411446,1.8204784532536746,0.04932051936269592,6714.0,0.6457999999999999,1.1271,1.0590126315789474
6141db8831cf3ef3d4a9efca,0.3994999999999999,Mo63 Se1 S126,16.0,24.71578947368421,42.0,190.0,2.01064336705395,14.81829839810725,9.204314043394135,2.416933336003759,375.0,-0.9829536387785947,2.6,4.966315789473684,6.0,2.0,0.0,11.0,10.0,0.20363881284100274,0.0,0.0031057102812884056,0.00526315789473684,0.008270822561203069,2.8853900817779268,0.048919944336961695,6635.0,0.1244,0.4337999999999999,0.37523746438746436
6141db90ee0a3fd43fb47c39,0.3601999999999999,Mo63 Se2 S126,16.0,24.76439790575916,42.0,191.0,2.0262642093791414,14.81829839810725,9.20534314017184,2.416933336003759,378.0,-0.9933560245064674,2.6666666666666665,5.0,6.0,2.0,0.0,11.0,10.0,0.20360265847867576,0.0,0.0030865806740578215,0.005235602094240835,0.008123386636999748,2.8853900817779268,0.04892318732941324,6732.0,0.2535,0.4375,0.36620928381962864
6141db9a31cf3ef3d4a9efcc,0.4168,Mo63 Se1 S126,16.0,24.71578947368421,42.0,190.0,2.01064336705395,14.81829839810725,9.20465722353508,2.416933336003759,375.0,-0.9853003294753762,2.6666666666666665,4.968421052631579,6.0,2.0,0.0,11.0,10.0,0.20360932996273184,0.0,0.00310333695294168,0.005263157894736839,0.008175319250241442,2.8853900817779268,0.0489199443369617,6633.0,0.1244,0.4337999999999999,0.37523746438746436
6141dba0baaf234b352903c0,1.1114,Mo63 W1 S126,16.0,24.926315789473684,74.0,190.0,2.031392023881028,14.81829839810725,9.203020783958223,2.416933336003759,378.0,-0.9831571611104665,3.0,4.936842105263158,6.0,2.0,0.0,11.0,11.0,0.20449343054607935,0.0,0.004055166591169985,0.005263157894736839,0.00776074497063582,1.8204784532536746,0.049320519362695936,6714.0,0.6457999999999999,1.1271,1.0590126315789474
6141dba64e27a1844a5f028e,1.1446,Mo63 W1 Se1 S126,16.0,24.973821989528794,74.0,191.0,2.0470128662062193,14.81829839810725,9.203690445163195,2.416933336003759,381.0,-0.9914443602906119,3.0,4.968586387434555,6.0,2.0,0.0,11.0,11.0,0.20447848560002432,0.0,0.004033035247933726,0.005235602094240835,0.007711544185025864,1.8204784532536746,0.049319546086242096,6813.0,1.1212,1.1958,1.1463284916201117
6141dbab31cf3ef3d4a9efce,0.3937,Mo63 Se1 S126,16.0,24.71578947368421,42.0,190.0,2.01064336705395,14.81829839810725,9.204408485208033,2.416933336003759,375.0,-0.9853003294753762,2.6666666666666665,4.968421052631579,6.0,2.0,0.0,11.0,10.0,0.203617153755016,0.0,0.0031036280812759514,0.005263157894736839,0.008244474761860337,2.8853900817779268,0.0489199443369617,6633.0,0.1244,0.4337999999999999,0.37523746438746436
6141dbb1ee0a3fd43fb47c3d,0.3596,Mo63 Se2 S126,16.0,24.76439790575916,42.0,191.0,2.0262642093791414,14.81829839810725,9.205343140288637,2.416933336003759,378.0,-0.9933560245064674,2.6666666666666665,5.0,6.0,2.0,0.0,11.0,10.0,0.20360265847867579,0.0,0.0030865806740578215,0.005235602094240836,0.008123386636999748,2.8853900817779268,0.04892318732941323,6732.0,0.2535,0.4375,0.36620928381962864
6141dbc2ee0a3fd43fb47c3f,0.4286,Mo63 Se2 S126,16.0,24.76439790575916,42.0,191.0,2.0262642093791414,14.81829839810725,9.205343140260831,2.416933336003759,378.0,-0.9933560245064674,2.6666666666666665,5.0,6.0,2.0,0.0,11.0,10.0,0.20360265847867626,0.0,0.0030865806740578215,0.005235602094240836,0.008123386636999748,2.8853900817779268,0.048923187329413226,6732.0,0.2535,0.4375,0.36620928381962864
6141dbcf31cf3ef3d4a9efd2,0.4175999999999999,Mo63 Se1 S126,16.0,24.71578947368421,42.0,190.0,2.01064336705395,14.81829839810725,9.204483655200887,2.416933336003759,375.0,-0.9853003294753762,2.6666666666666665,4.968421052631579,6.0,2.0,0.0,11.0,10.0,0.2036189218436682,0.0,0.0031034775912119257,0.005263157894736839,0.008216286576687187,2.8853900817779268,0.0489199443369617,6633.0,0.1244,0.4337999999999999,0.37523746438746436
6141dbd23ac25c70a5c6c94d,0.3978,Mo63 S126,16.0,24.666666666666668,42.0,189.0,1.9950225247287592,14.81829839810725,9.203973183312376,2.416933336003759,372.0,-0.9775503658998795,2.6666666666666665,4.936507936507937,6.0,2.0,0.0,11.0,10.0,0.20361227746825591,0.0,0.003120586756459413,0.005291005291005289,0.008223918049224004,2.8853900817779268,0.04891381934034083,6534.0,0.0938999999999999,0.537,0.37681101928374655
6141dbd3ee0a3fd43fb47c41,0.3586999999999999,Mo63 Se2 S126,16.0,24.76439790575916,42.0,191.0,2.0262642093791414,14.81829839810725,9.205343140145098,2.416933336003759,378.0,-0.9933560245064674,2.6666666666666665,5.0,6.0,2.0,0.0,11.0,10.0,0.2036026584786763,0.0,0.0030865806740578215,0.005235602094240836,0.008123386636999748,2.8853900817779268,0.04892318732941323,6732.0,0.2535,0.4375,0.36620928381962864
6141dbe031cf3ef3d4a9efd4,0.355,Mo63 Se1 S126,16.0,24.71578947368421,42.0,190.0,2.01064336705395,14.81829839810725,9.20444776613791,2.416933336003759,375.0,-0.9853003294753762,2.6666666666666665,4.968421052631579,6.0,2.0,0.0,11.0,10.0,0.20361251252230525,0.0,0.0031043870361096393,0.005263157894736839,0.008219141586916945,2.8853900817779268,0.0489199443369617,6633.0,0.1244,0.4337999999999999,0.37523746438746436
6141dbe6baaf234b352903c4,1.1091,Mo63 W1 S126,16.0,24.926315789473684,74.0,190.0,2.031392023881028,14.81829839810725,9.202972614892758,2.416933336003759,378.0,-0.9831571611104665,3.0,4.936842105263158,6.0,2.0,0.0,11.0,11.0,0.2044934305460794,0.0,0.004054774471908985,0.00526315789473684,0.007764123814068772,1.8204784532536746,0.04932051936269592,6714.0,0.6457999999999999,1.1271,1.0590126315789474
6141dbf14e27a1844a5f0294,1.1384,Mo63 W1 Se1 S126,16.0,24.973821989528794,74.0,191.0,2.0470128662062193,14.81829839810725,9.20369044510213,2.416933336003759,381.0,-0.9914443602906119,3.0,4.968586387434555,6.0,2.0,0.0,11.0,11.0,0.20447848560002427,0.0,0.004033035247933726,0.005235602094240836,0.007711544185025864,1.8204784532536746,0.04931954608624209,6813.0,1.1212,1.1958,1.1463284916201117
6141dbf5ee0a3fd43fb47c45,0.3591,Mo63 Se2 S126,16.0,24.76439790575916,42.0,191.0,2.0262642093791414,14.81829839810725,9.205343140288635,2.416933336003759,378.0,-0.9933560245064674,2.6666666666666665,5.0,6.0,2.0,0.0,11.0,10.0,0.20360265847867628,0.0,0.0030865806740578215,0.005235602094240836,0.008123386636999748,2.8853900817779268,0.048923187329413226,6732.0,0.2535,0.4375,0.36620928381962864
6141dc004e27a1844a5f0296,1.1418,Mo63 W1 Se1 S126,16.0,24.973821989528794,74.0,191.0,2.0470128662062193,14.81829839810725,9.20369044512843,2.416933336003759,381.0,-0.9914443602906119,3.0,4.968586387434555,6.0,2.0,0.0,11.0,11.0,0.20447848560002457,0.0,0.004033035247933726,0.005235602094240835,0.007711544185025864,1.8204784532536746,0.0493195460862421,6813.0,1.1212,1.1958,1.1463284916201117
6141dc0431cf3ef3d4a9efd8,0.405,Mo63 Se1 S126,16.0,24.71578947368421,42.0,190.0,2.01064336705395,14.81829839810725,9.204771430249233,2.416933336003759,375.0,-0.9853003294753762,2.6666666666666665,4.968421052631579,6.0,2.0,0.0,11.0,10.0,0.20360756187407988,0.0,0.0031031537672274964,0.005263157894736839,0.008169279475794527,2.8853900817779268,0.048919944336961695,6633.0,0.1244,0.4337999999999999,0.37523746438746436
6141dc109cbada84a8676a35,1.8064,Mo63 W1 Se2 S126,16.0,25.020833333333332,74.0,192.0,2.062633708531411,14.81829839810725,9.204493652765015,2.416933336003759,384.0,-1.0,3.0,5.0,6.0,2.0,0.0,11.0,11.0,0.2044595166323097,0.0,0.004011523522002345,0.005208333333333331,0.007601952955995299,1.8204784532536746,0.04931584583967819,6912.0,1.8056,1.8104,1.8084216666666666