_id,band_gap,formula,atomic_numbers_min,atomic_numbers_mean,atomic_numbers_max,num_sites,density,distance_max,distance_mean,distance_min,num_edges,degree_assortativity_coefficient,neighbor_degree_min,neighbor_degree_mean,neighbor_degree_max,graph_clique_number,average_clustering,diameter,radius,global_efficiency,local_efficiency,pagerank_min,pagerank_mean,pagerank_max,adamic_adar_max,adamic_adar_mean,s_metric,min_formula_band_gap,max_formula_band_gap,mean_formula_band_gap
6141d2e39cbada84a867691d,1.8077,Mo63 W1 Se2 S126,16.0,25.020833333333332,74.0,192.0,2.062633708531411,14.81829839810725,9.204493652765015,2.416933336003759,384.0,-1.0,3.0,5.0,6.0,2.0,0.0,11.0,11.0,0.2044595166323097,0.0,0.004011523522002345,0.005208333333333331,0.007601952955995299,1.8204784532536746,0.04931584583967819,6912.0,1.8056,1.8104,1.8084216666666666
6141d2e8baaf234b352902c8,1.1041,Mo63 W1 S126,16.0,24.926315789473684,74.0,190.0,2.031392023881028,14.81829839810725,9.202997615980866,2.416933336003759,378.0,-0.9831571611104665,3.0,4.936842105263158,6.0,2.0,0.0,11.0,11.0,0.20449343054607938,0.0,0.004055166591169985,0.005263157894736839,0.007760744970635821,1.8204784532536746,0.04932051936269593,6714.0,0.6457999999999999,1.1271,1.0590126315789474
6141d2ec9cbada84a867691f,1.8068,Mo63 W1 Se2 S126,16.0,25.020833333333332,74.0,192.0,2.062633708531411,14.81829839810725,9.204493652765015,2.416933336003759,384.0,-1.0,3.0,5.0,6.0,2.0,0.0,11.0,11.0,0.2044595166323097,0.0,0.004011523522002345,0.005208333333333331,0.007601952955995299,1.8204784532536746,0.04931584583967819,6912.0,1.8056,1.8104,1.8084216666666666
6141d2f94e27a1844a5f0164,1.1478,Mo63 W1 Se1 S126,16.0,24.973821989528794,74.0,191.0,2.0470128662062193,14.81829839810725,9.203690445151896,2.416933336003759,381.0,-0.9914443602906119,3.0,4.968586387434555,6.0,2.0,0.0,11.0,11.0,0.2044784856000245,0.0,0.004033035247933726,0.005235602094240837,0.007711544185025864,1.8204784532536746,0.04931954608624209,6813.0,1.1212,1.1958,1.1463284916201117
6141d2fc31cf3ef3d4a9eeaa,0.3014,Mo63 Se1 S126,16.0,24.71578947368421,42.0,190.0,2.01064336705395,14.81829839810725,9.204164379035817,2.416933336003759,376.0,-0.9865985405089595,2.6666666666666665,4.976842105263158,6.0,2.0,0.0,11.0,10.0,0.20380012682019508,0.0,0.0031049043153504497,0.005263157894736839,0.008178089643911472,2.8853900817779268,0.04911877547843738,6680.0,0.1244,0.4337999999999999,0.37523746438746436
6141d3034e27a1844a5f0166,1.1375,Mo63 W1 Se1 S126,16.0,24.973821989528794,74.0,191.0,2.0470128662062193,14.81829839810725,9.203690445031414,2.416933336003759,381.0,-0.9914443602906119,3.0,4.968586387434555,6.0,2.0,0.0,11.0,11.0,0.20447848560002435,0.0,0.004033035247933726,0.005235602094240836,0.007711544185025864,1.8204784532536746,0.049319546086242096,6813.0,1.1212,1.1958,1.1463284916201117
6141d30c4e27a1844a5f0168,1.1455,Mo63 W1 Se1 S126,16.0,24.973821989528794,74.0,191.0,2.0470128662062193,14.81829839810725,9.203690445139728,2.416933336003759,381.0,-0.9914443602906119,3.0,4.968586387434555,6.0,2.0,0.0,11.0,11.0,0.20447848560002455,0.0,0.004033035247933726,0.005235602094240835,0.007711544185025864,1.8204784532536746,0.049319546086242096,6813.0,1.1212,1.1958,1.1463284916201117
6141d30e9cbada84a8676925,1.8097,Mo63 W1 Se2 S126,16.0,25.020833333333332,74.0,192.0,2.062633708531411,14.81829839810725,9.204493652765017,2.416933336003759,384.0,-1.0,3.0,5.0,6.0,2.0,0.0,11.0,11.0,0.2044595166323097,0.0,0.004011523522002345,0.005208333333333331,0.007601952955995299,1.8204784532536746,0.04931584583967819,6912.0,1.8056,1.8104,1.8084216666666666
6141d310ee0a3fd43fb47b35,0.4354,Mo63 Se2 S126,16.0,24.76439790575916,42.0,191.0,2.0262642093791414,14.81829839810725,9.205343140288637,2.416933336003759,378.0,-0.9933560245064674,2.6666666666666665,5.0,6.0,2.0,0.0,11.0,10.0,0.20360265847867598,0.0,0.0030865806740578215,0.005235602094240835,0.008123386636999748,2.8853900817779268,0.048923187329413226,6732.0,0.2535,0.4375,0.36620928381962864
6141d3143ac25c70a5c6c8d1,0.2949,Mo63 S126,16.0,24.666666666666668,42.0,189.0,1.9950225247287592,14.81829839810725,9.203789871504597,2.416933336003759,373.0,-0.9785729680347698,2.6666666666666665,4.9449735449735455,6.0,2.0,0.0,11.0,10.0,0.20380135159350007,0.0,0.00312210487021179,0.005291005291005289,0.008223039911404665,2.8853900817779268,0.04911477642140818,6581.0,0.0938999999999999,0.537,0.37681101928374655
6141d315baaf234b352902d0,1.0892,Mo63 W1 S126,16.0,24.926315789473684,74.0,190.0,2.031392023881028,14.81829839810725,9.202859084188955,2.416933336003759,378.0,-0.9831571611104665,3.0,4.936842105263158,6.0,2.0,0.0,11.0,11.0,0.20449575116243515,0.0,0.004055071481932315,0.005263157894736839,0.007797538150332789,1.8204784532536746,0.04932051936269593,6714.0,0.6457999999999999,1.1271,1.0590126315789474
6141d31e9cbada84a8676927,1.8065,Mo63 W1 Se2 S126,16.0,25.020833333333332,74.0,192.0,2.062633708531411,14.81829839810725,9.204493652765015,2.416933336003759,384.0,-1.0,3.0,5.0,6.0,2.0,0.0,11.0,11.0,0.2044595166323097,0.0,0.004011523522002345,0.005208333333333331,0.007601952955995299,1.8204784532536746,0.04931584583967819,6912.0,1.8056,1.8104,1.8084216666666666
6141d3214e27a1844a5f016c,1.1482,Mo63 W1 Se1 S126,16.0,24.973821989528794,74.0,191.0,2.0470128662062193,14.81829839810725,9.203690445132798,2.416933336003759,381.0,-0.9914443602906119,3.0,4.968586387434555,6.0,2.0,0.0,11.0,11.0,0.20447848560002455,0.0,0.004033035247933726,0.005235602094240835,0.007711544185025864,1.8204784532536746,0.04931954608624209,6813.0,1.1212,1.1958,1.1463284916201117
6141d32e3ac25c70a5c6c8d3,0.4207999999999999,Mo63 S126,16.0,24.666666666666668,42.0,189.0,1.9950225247287592,14.81829839810725,9.203754321842176,2.416933336003759,372.0,-0.9775503658998795,2.6666666666666665,4.936507936507937,6.0,2.0,0.0,11.0,10.0,0.20361969309539463,0.0,0.0031225798671179975,0.005291005291005287,0.008228437191556087,2.8853900817779268,0.04891381934034083,6534.0,0.0938999999999999,0.537,0.37681101928374655
6141d32e4e27a1844a5f016e,1.1417,Mo63 W1 Se1 S126,16.0,24.973821989528794,74.0,191.0,2.0470128662062193,14.81829839810725,9.203690445054884,2.416933336003759,381.0,-0.9914443602906119,3.0,4.968586387434555,6.0,2.0,0.0,11.0,11.0,0.20447848560002438,0.0,0.004033035247933726,0.005235602094240836,0.007711544185025864,1.8204784532536746,0.04931954608624209,6813.0,1.1212,1.1958,1.1463284916201117
6141d33031cf3ef3d4a9eeb4,0.302,Mo63 Se1 S126,16.0,24.71578947368421,42.0,190.0,2.01064336705395,14.81829839810725,9.20416437895978,2.416933336003759,376.0,-0.9865985405089595,2.6666666666666665,4.976842105263158,6.0,2.0,0.0,11.0,10.0,0.20380012682019508,0.0,0.0031049043153504497,0.005263157894736839,0.008178089643911474,2.8853900817779268,0.04911877547843738,6680.0,0.1244,0.4337999999999999,0.37523746438746436
6141d3319cbada84a867692b,1.809,Mo63 W1 Se2 S126,16.0,25.020833333333332,74.0,192.0,2.062633708531411,14.81829839810725,9.204493652765015,2.416933336003759,384.0,-1.0,3.0,5.0,6.0,2.0,0.0,11.0,11.0,0.2044595166323097,0.0,0.004011523522002345,0.005208333333333331,0.007601952955995299,1.8204784532536746,0.04931584583967819,6912.0,1.8056,1.8104,1.8084216666666666
6141d336baaf234b352902d6,1.1058,Mo63 W1 S126,16.0,24.926315789473684,74.0,190.0,2.031392023881028,14.81829839810725,9.202918216310739,2.416933336003759,378.0,-0.9831571611104665,3.0,4.936842105263158,6.0,2.0,0.0,11.0,11.0,0.20449575116243515,0.0,0.004055463214741476,0.005263157894736841,0.007771702333642349,1.8204784532536746,0.04932051936269593,6714.0,0.6457999999999999,1.1271,1.0590126315789474
6141d338ee0a3fd43fb47b3d,0.3595,Mo63 Se2 S126,16.0,24.76439790575916,42.0,191.0,2.0262642093791414,14.81829839810725,9.205343140259355,2.416933336003759,378.0,-0.9933560245064674,2.6666666666666665,5.0,6.0,2.0,0.0,11.0,10.0,0.20360265847867626,0.0,0.0030865806740578215,0.005235602094240836,0.008123386636999748,2.8853900817779268,0.04892318732941323,6732.0,0.2535,0.4375,0.36620928381962864
6141d33b9cbada84a867692d,1.8084,Mo63 W1 Se2 S126,16.0,25.020833333333332,74.0,192.0,2.062633708531411,14.81829839810725,9.204493652765015,2.416933336003759,384.0,-1.0,3.0,5.0,6.0,2.0,0.0,11.0,11.0,0.2044595166323097,0.0,0.004011523522002345,0.005208333333333331,0.007601952955995299,1.8204784532536746,0.0493158458396782,6912.0,1.8056,1.8104,1.8084216666666666
6141d34231cf3ef3d4a9eeb6,0.3549,Mo63 Se1 S126,16.0,24.71578947368421,42.0,190.0,2.01064336705395,14.81829839810725,9.204771430329153,2.416933336003759,375.0,-0.9853003294753762,2.6666666666666665,4.968421052631579,6.0,2.0,0.0,11.0,10.0,0.20360756187407966,0.0,0.0031031537672274964,0.005263157894736839,0.008169279475794527,2.8853900817779268,0.0489199443369617,6633.0,0.1244,0.4337999999999999,0.37523746438746436
6141d342baaf234b352902d8,1.1042,Mo63 W1 S126,16.0,24.926315789473684,74.0,190.0,2.031392023881028,14.81829839810725,9.202997615962529,2.416933336003759,378.0,-0.9831571611104665,3.0,4.936842105263158,6.0,2.0,0.0,11.0,11.0,0.20449343054607932,0.0,0.004055166591169985,0.005263157894736839,0.007760744970635821,1.8204784532536746,0.04932051936269592,6714.0,0.6457999999999999,1.1271,1.0590126315789474
6141d342ee0a3fd43fb47b3f,0.3583,Mo63 Se2 S126,16.0,24.76439790575916,42.0,191.0,2.0262642093791414,14.81829839810725,9.205343140260831,2.416933336003759,378.0,-0.9933560245064674,2.6666666666666665,5.0,6.0,2.0,0.0,11.0,10.0,0.20360265847867626,0.0,0.0030865806740578215,0.005235602094240836,0.008123386636999748,2.8853900817779268,0.048923187329413226,6732.0,0.2535,0.4375,0.36620928381962864
6141d3459cbada84a867692f,1.8093,Mo63 W1 Se2 S126,16.0,25.020833333333332,74.0,192.0,2.062633708531411,14.81829839810725,9.204493652765017,2.416933336003759,384.0,-1.0,3.0,5.0,6.0,2.0,0.0,11.0,11.0,0.2044595166323097,0.0,0.004011523522002345,0.005208333333333331,0.007601952955995299,1.8204784532536746,0.049315845839678185,6912.0,1.8056,1.8104,1.8084216666666666
6141d3473ac25c70a5c6c8d5,0.3709,Mo63 S126,16.0,24.666666666666668,42.0,189.0,1.9950225247287592,14.81829839810725,9.203287894355814,2.416933336003759,372.0,-0.9738619261393573,2.6666666666666665,4.940035273368607,6.0,2.0,0.0,11.0,10.0,0.20364354818510577,0.0,0.00312040283407723,0.005291005291005289,0.00830474327962992,2.8853900817779268,0.04892951704240725,6540.0,0.0938999999999999,0.537,0.37681101928374655
6141d34e4e27a1844a5f0174,1.1454,Mo63 W1 Se1 S126,16.0,24.973821989528794,74.0,191.0,2.0470128662062193,14.81829839810725,9.203690445228663,2.416933336003759,381.0,-0.9914443602906119,3.0,4.968586387434555,6.0,2.0,0.0,11.0,11.0,0.20447848560002424,0.0,0.004033035247933726,0.005235602094240836,0.007711544185025864,1.8204784532536746,0.049319546086242096,6813.0,1.1212,1.1958,1.1463284916201117
6141d351ee0a3fd43fb47b41,0.3591999999999999,Mo63 Se2 S126,16.0,24.76439790575916,42.0,191.0,2.0262642093791414,14.81829839810725,9.205343140163281,2.416933336003759,378.0,-0.9933560245064674,2.6666666666666665,5.0,6.0,2.0,0.0,11.0,10.0,0.203602658478676,0.0,0.0030865806740578215,0.005235602094240836,0.008123386636999748,2.8853900817779268,0.04892318732941323,6732.0,0.2535,0.4375,0.36620928381962864
6141d3594e27a1844a5f0176,1.1458,Mo63 W1 Se1 S126,16.0,24.973821989528794,74.0,191.0,2.0470128662062193,14.81829839810725,9.203690445164169,2.416933336003759,381.0,-0.9914443602906119,3.0,4.968586387434555,6.0,2.0,0.0,11.0,11.0,0.2044784856000243,0.0,0.004033035247933726,0.005235602094240836,0.007711544185025864,1.8204784532536746,0.04931954608624209,6813.0,1.1212,1.1958,1.1463284916201117
6141d35abaaf234b352902da,1.0877,Mo63 W1 S126,16.0,24.926315789473684,74.0,190.0,2.031392023881028,14.81829839810725,9.202890585642116,2.416933336003759,378.0,-0.9831571611104665,3.0,4.936842105263158,6.0,2.0,0.0,11.0,11.0,0.2044957511624351,0.0,0.004055463214741476,0.005263157894736841,0.007771702333642349,1.8204784532536746,0.04932051936269593,6714.0,0.6457999999999999,1.1271,1.0590126315789474
6141d3613ac25c70a5c6c8d7,0.4014,Mo63 S126,16.0,24.666666666666668,42.0,189.0,1.9950225247287592,14.81829839810725,9.203810496115493,2.416933336003759,372.0,-0.9751401887324205,2.6,4.934391534391534,6.0,2.0,0.0,11.0,10.0,0.20363972869040478,0.0,0.0031229140878120277,0.005291005291005288,0.00831926640385281,2.8853900817779268,0.04891381934034082,6536.0,0.0938999999999999,0.537,0.37681101928374655
6141d364ee0a3fd43fb47b43,0.3577,Mo63 Se2 S126,16.0,24.76439790575916,42.0,191.0,2.0262642093791414,14.81829839810725,9.205343140235431,2.416933336003759,378.0,-0.9933560245064674,2.6666666666666665,5.0,6.0,2.0,0.0,11.0,10.0,0.2036026584786757,0.0,0.0030865806740578215,0.005235602094240836,0.008123386636999748,2.8853900817779268,0.048923187329413226,6732.0,0.2535,0.4375,0.36620928381962864
6141d365baaf234b352902dc,1.1023,Mo63 W1 S126,16.0,24.926315789473684,74.0,190.0,2.031392023881028,14.81829839810725,9.203150040605088,2.416933336003759,378.0,-0.9831571611104665,3.0,4.936842105263158,6.0,2.0,0.0,11.0,11.0,0.20449203817626596,0.0,0.004054773871902172,0.005263157894736839,0.007755110086250584,1.8204784532536746,0.04932051936269592,6714.0,0.6457999999999999,1.1271,1.0590126315789474
6141d36fee0a3fd43fb47b45,0.368,Mo63 Se2 S126,16.0,24.76439790575916,42.0,191.0,2.0262642093791414,14.81829839810725,9.205343140250797,2.416933336003759,378.0,-0.9933560245064674,2.6666666666666665,5.0,6.0,2.0,0.0,11.0,10.0,0.20360265847867592,0.0,0.0030865806740578215,0.005235602094240835,0.008123386636999748,2.8853900817779268,0.04892318732941323,6732.0,0.2535,0.4375,0.36620928381962864
6141d3789cbada84a8676937,1.8084,Mo63 W1 Se2 S126,16.0,25.020833333333332,74.0,192.0,2.062633708531411,14.81829839810725,9.204493652765015,2.416933336003759,384.0,-1.0,3.0,5.0,6.0,2.0,0.0,11.0,11.0,0.2044595166323097,0.0,0.004011523522002345,0.005208333333333331,0.007601952955995299,1.8204784532536746,0.04931584583967819,6912.0,1.8056,1.8104,1.8084216666666666
6141d37b3ac25c70a5c6c8d9,0.4129,Mo63 S126,16.0,24.666666666666668,42.0,189.0,1.9950225247287592,14.81829839810725,9.203610874431346,2.416933336003759,372.0,-0.9738619261393573,2.6666666666666665,4.940035273368607,6.0,2.0,0.0,11.0,10.0,0.20363564116098792,0.0,0.0031201371499215043,0.005291005291005288,0.008237915598658895,2.8853900817779268,0.04892951704240724,6540.0,0.0938999999999999,0.537,0.37681101928374655
6141d37cbaaf234b352902e0,1.0339,Mo63 W1 S126,16.0,24.926315789473684,74.0,190.0,2.031392023881028,14.81829839810725,9.202754072894459,2.416933336003759,378.0,-0.9831571611104665,3.0,4.936842105263158,6.0,2.0,0.0,11.0,11.0,0.20450039239514642,0.0,0.004055168217885793,0.005263157894736839,0.007824428169800019,1.8204784532536746,0.04932051936269592,6714.0,0.6457999999999999,1.1271,1.0590126315789474
6141d38031cf3ef3d4a9eec0,0.3566999999999999,Mo63 Se1 S126,16.0,24.71578947368421,42.0,190.0,2.01064336705395,14.81829839810725,9.204750040550456,2.416933336003759,375.0,-0.9853003294753762,2.6666666666666665,4.968421052631579,6.0,2.0,0.0,11.0,10.0,0.2036075618740796,0.0,0.003103458209969202,0.005263157894736839,0.008169828111344186,2.8853900817779268,0.0489199443369617,6633.0,0.1244,0.4337999999999999,0.37523746438746436
6141d3819cbada84a8676939,1.8071,Mo63 W1 Se2 S126,16.0,25.020833333333332,74.0,192.0,2.062633708531411,14.81829839810725,9.204493652765015,2.416933336003759,384.0,-1.0,3.0,5.0,6.0,2.0,0.0,11.0,11.0,0.2044595166323097,0.0,0.004011523522002345,0.005208333333333331,0.007601952955995299,1.8204784532536746,0.04931584583967819,6912.0,1.8056,1.8104,1.8084216666666666
6141d383ee0a3fd43fb47b47,0.3587,Mo63 Se2 S126,16.0,24.76439790575916,42.0,191.0,2.0262642093791414,14.81829839810725,9.205343140171841,2.416933336003759,378.0,-0.9933560245064674,2.6666666666666665,5.0,6.0,2.0,0.0,11.0,10.0,0.20360265847867573,0.0,0.0030865806740578215,0.005235602094240835,0.008123386636999748,2.8853900817779268,0.04892318732941323,6732.0,0.2535,0.4375,0.36620928381962864
6141d38dee0a3fd43fb47b49,0.4291999999999999,Mo63 Se2 S126,16.0,24.76439790575916,42.0,191.0,2.0262642093791414,14.81829839810725,9.205343140260831,2.416933336003759,378.0,-0.9933560245064674,2.6666666666666665,5.0,6.0,2.0,0.0,11.0,10.0,0.2036026584786763,0.0,0.0030865806740578215,0.005235602094240836,0.008123386636999748,2.8853900817779268,0.048923187329413226,6732.0,0.2535,0.4375,0.36620928381962864
6141d3949cbada84a867693d,1.8089,Mo63 W1 Se2 S126,16.0,25.020833333333332,74.0,192.0,2.062633708531411,14.81829839810725,9.204493652765015,2.416933336003759,384.0,-1.0,3.0,5.0,6.0,2.0,0.0,11.0,11.0,0.2044595166323097,0.0,0.004011523522002345,0.005208333333333331,0.007601952955995299,1.8204784532536746,0.04931584583967819,6912.0,1.8056,1.8104,1.8084216666666666
6141d395baaf234b352902e2,1.1042,Mo63 W1 S126,16.0,24.926315789473684,74.0,190.0,2.031392023881028,14.81829839810725,9.202997615977216,2.416933336003759,378.0,-0.9831571611104665,3.0,4.936842105263158,6.0,2.0,0.0,11.0,11.0,0.2044934305460794,0.0,0.004055166591169985,0.005263157894736839,0.0077607449706358226,1.8204784532536746,0.04932051936269592,6714.0,0.6457999999999999,1.1271,1.0590126315789474
6141d39631cf3ef3d4a9eec4,0.3562999999999999,Mo63 Se1 S126,16.0,24.71578947368421,42.0,190.0,2.01064336705395,14.81829839810725,9.204705229887507,2.416933336003759,375.0,-0.9853003294753762,2.6666666666666665,4.968421052631579,6.0,2.0,0.0,11.0,10.0,0.2036075618740799,0.0,0.0031031429615504783,0.005263157894736839,0.008170708138232579,2.8853900817779268,0.048919944336961695,6633.0,0.1244,0.4337999999999999,0.37523746438746436
6141d3973ac25c70a5c6c8db,0.3625,Mo63 S126,16.0,24.666666666666668,42.0,189.0,1.9950225247287592,14.81829839810725,9.203486256939211,2.416933336003759,372.0,-0.9751401887324205,2.6,4.934391534391534,6.0,2.0,0.0,11.0,10.0,0.20364942261262833,0.0,0.0031308023729378115,0.005291005291005289,0.008316979675043969,2.8853900817779268,0.04891381934034083,6536.0,0.0938999999999999,0.537,0.37681101928374655
6141d398ee0a3fd43fb47b4b,0.3823,Mo63 Se2 S126,16.0,24.76439790575916,42.0,191.0,2.0262642093791414,14.81829839810725,9.205343140241382,2.416933336003759,378.0,-0.9933560245064674,2.6666666666666665,5.0,6.0,2.0,0.0,11.0,10.0,0.20360265847867606,0.0,0.0030865806740578215,0.005235602094240836,0.008123386636999748,2.8853900817779268,0.04892318732941323,6732.0,0.2535,0.4375,0.36620928381962864
6141d39f31cf3ef3d4a9eec6,0.3928999999999999,Mo63 Se1 S126,16.0,24.71578947368421,42.0,190.0,2.01064336705395,14.81829839810725,9.204408485235026,2.416933336003759,375.0,-0.9853003294753762,2.6666666666666665,4.968421052631579,6.0,2.0,0.0,11.0,10.0,0.2036171537550163,0.0,0.0031036280812759514,0.00526315789473684,0.008244474761860339,2.8853900817779268,0.0489199443369617,6633.0,0.1244,0.4337999999999999,0.37523746438746436
6141d3a3ee0a3fd43fb47b4d,0.3574,Mo63 Se2 S126,16.0,24.76439790575916,42.0,191.0,2.0262642093791414,14.81829839810725,9.205343140302597,2.416933336003759,378.0,-0.9933560245064674,2.6666666666666665,5.0,6.0,2.0,0.0,11.0,10.0,0.20360265847867626,0.0,0.0030865806740578215,0.005235602094240836,0.008123386636999748,2.8853900817779268,0.048923187329413226,6732.0,0.2535,0.4375,0.36620928381962864
6141d3a84e27a1844a5f0184,1.1474,Mo63 W1 Se1 S126,16.0,24.973821989528794,74.0,191.0,2.0470128662062193,14.81829839810725,9.203690445139728,2.416933336003759,381.0,-0.9914443602906119,3.0,4.968586387434555,6.0,2.0,0.0,11.0,11.0,0.2044784856000243,0.0,0.004033035247933726,0.005235602094240835,0.007711544185025864,1.8204784532536746,0.049319546086242096,6813.0,1.1212,1.1958,1.1463284916201117
6141d3acbaaf234b352902e6,1.0974,Mo63 W1 S126,16.0,24.926315789473684,74.0,190.0,2.031392023881028,14.81829839810725,9.202859083975273,2.416933336003759,378.0,-0.9831571611104665,3.0,4.936842105263158,6.0,2.0,0.0,11.0,11.0,0.20449575116243512,0.0,0.004055071481932314,0.005263157894736839,0.007797538150332789,1.8204784532536746,0.04932051936269593,6714.0,0.6457999999999999,1.1271,1.0590126315789474