_id,band_gap,formula,atomic_numbers_min,atomic_numbers_mean,atomic_numbers_max,num_sites,density,distance_max,distance_mean,distance_min,num_edges,degree_assortativity_coefficient,neighbor_degree_min,neighbor_degree_mean,neighbor_degree_max,graph_clique_number,average_clustering,diameter,radius,global_efficiency,local_efficiency,pagerank_min,pagerank_mean,pagerank_max,adamic_adar_max,adamic_adar_mean,s_metric,min_formula_band_gap,max_formula_band_gap,mean_formula_band_gap
614202a44e27a1844a5f0524,1.15,Mo63 W1 Se1 S126,16.0,24.973821989528794,74.0,191.0,2.0470128662062193,14.81829839810725,9.203690445163195,2.416933336003759,381.0,-0.9914443602906119,3.0,4.968586387434555,6.0,2.0,0.0,11.0,11.0,0.20447848560002427,0.0,0.004033035247933726,0.005235602094240836,0.007711544185025864,1.8204784532536746,0.049319546086242096,6813.0,1.1212,1.1958,1.1463284916201117
614202c44e27a1844a5f0526,1.1445,Mo63 W1 Se1 S126,16.0,24.973821989528794,74.0,191.0,2.0470128662062193,14.81829839810725,9.203690445128428,2.416933336003759,381.0,-0.9914443602906119,3.0,4.968586387434555,6.0,2.0,0.0,11.0,11.0,0.20447848560002455,0.0,0.004033035247933726,0.005235602094240835,0.007711544185025864,1.8204784532536746,0.049319546086242096,6813.0,1.1212,1.1958,1.1463284916201117
614202ca31cf3ef3d4a9f218,0.2914,Mo63 Se1 S126,16.0,24.71578947368421,42.0,190.0,2.01064336705395,14.81829839810725,9.204252219728364,2.416933336003759,375.0,-0.980606948081815,2.6,4.96421052631579,6.0,2.0,0.0,11.0,10.0,0.2036292209600657,0.0,0.003106236454013171,0.005263157894736839,0.00823720522324565,2.8853900817779268,0.048919944336961695,6637.0,0.1244,0.4337999999999999,0.37523746438746436
614202cc9cbada84a8676c07,1.809,Mo63 W1 Se2 S126,16.0,25.020833333333332,74.0,192.0,2.062633708531411,14.81829839810725,9.204493652765017,2.416933336003759,384.0,-1.0,3.0,5.0,6.0,2.0,0.0,11.0,11.0,0.2044595166323097,0.0,0.004011523522002345,0.005208333333333331,0.007601952955995299,1.8204784532536746,0.04931584583967819,6912.0,1.8056,1.8104,1.8084216666666666
614202ea9cbada84a8676c09,1.8078,Mo63 W1 Se2 S126,16.0,25.020833333333332,74.0,192.0,2.062633708531411,14.81829839810725,9.204493652765015,2.416933336003759,384.0,-1.0,3.0,5.0,6.0,2.0,0.0,11.0,11.0,0.2044595166323097,0.0,0.004011523522002345,0.005208333333333331,0.007601952955995299,1.8204784532536746,0.049315845839678185,6912.0,1.8056,1.8104,1.8084216666666666
614202eb31cf3ef3d4a9f21a,0.4156999999999999,Mo63 Se1 S126,16.0,24.71578947368421,42.0,190.0,2.01064336705395,14.81829839810725,9.204657223464553,2.416933336003759,375.0,-0.9853003294753762,2.6666666666666665,4.968421052631579,6.0,2.0,0.0,11.0,10.0,0.20360932996273187,0.0,0.00310333695294168,0.005263157894736839,0.008175319250241442,2.8853900817779268,0.0489199443369617,6633.0,0.1244,0.4337999999999999,0.37523746438746436
614203024e27a1844a5f052a,1.1462,Mo63 W1 Se1 S126,16.0,24.973821989528794,74.0,191.0,2.0470128662062193,14.81829839810725,9.203690445122913,2.416933336003759,381.0,-0.9914443602906119,3.0,4.968586387434555,6.0,2.0,0.0,11.0,11.0,0.20447848560002435,0.0,0.004033035247933726,0.005235602094240836,0.007711544185025864,1.8204784532536746,0.049319546086242096,6813.0,1.1212,1.1958,1.1463284916201117
6142031a31cf3ef3d4a9f21c,0.4201,Mo63 Se1 S126,16.0,24.71578947368421,42.0,190.0,2.01064336705395,14.81829839810725,9.204577369003363,2.416933336003759,375.0,-0.9853003294753762,2.6666666666666665,4.968421052631579,6.0,2.0,0.0,11.0,10.0,0.203612114702358,0.0,0.0031031737343998043,0.005263157894736839,0.008182831895885355,2.8853900817779268,0.0489199443369617,6633.0,0.1244,0.4337999999999999,0.37523746438746436
6142031bee0a3fd43fb47e23,0.2754,Mo63 Se2 S126,16.0,24.76439790575916,42.0,191.0,2.0262642093791414,14.81829839810725,9.205343140259357,2.416933336003759,378.0,-0.9933560245064674,2.6666666666666665,5.0,6.0,2.0,0.0,11.0,10.0,0.20360265847867567,0.0,0.0030865806740578215,0.005235602094240836,0.008123386636999748,2.8853900817779268,0.048923187329413226,6732.0,0.2535,0.4375,0.36620928381962864
6142031d9cbada84a8676c0b,1.8084,Mo63 W1 Se2 S126,16.0,25.020833333333332,74.0,192.0,2.062633708531411,14.81829839810725,9.204493652765015,2.416933336003759,384.0,-1.0,3.0,5.0,6.0,2.0,0.0,11.0,11.0,0.2044595166323097,0.0,0.004011523522002345,0.005208333333333331,0.007601952955995299,1.8204784532536746,0.04931584583967819,6912.0,1.8056,1.8104,1.8084216666666666
61420329baaf234b35290586,1.0392,Mo63 W1 S126,16.0,24.926315789473684,74.0,190.0,2.031392023881028,14.81829839810725,9.202754072872908,2.416933336003759,378.0,-0.9831571611104665,3.0,4.936842105263158,6.0,2.0,0.0,11.0,11.0,0.20450039239514645,0.0,0.004055168217885793,0.005263157894736839,0.00782442816980002,1.8204784532536746,0.04932051936269593,6714.0,0.6457999999999999,1.1271,1.0590126315789474
614203364e27a1844a5f052c,1.1469,Mo63 W1 Se1 S126,16.0,24.973821989528794,74.0,191.0,2.0470128662062193,14.81829839810725,9.20369044518146,2.416933336003759,381.0,-0.9914443602906119,3.0,4.968586387434555,6.0,2.0,0.0,11.0,11.0,0.20447848560002457,0.0,0.004033035247933726,0.005235602094240835,0.007711544185025864,1.8204784532536746,0.04931954608624209,6813.0,1.1212,1.1958,1.1463284916201117
6142034bbaaf234b35290588,1.0947,Mo63 W1 S126,16.0,24.926315789473684,74.0,190.0,2.031392023881028,14.81829839810725,9.202859084202613,2.416933336003759,378.0,-0.9831571611104665,3.0,4.936842105263158,6.0,2.0,0.0,11.0,11.0,0.20449575116243507,0.0,0.004055071481932314,0.00526315789473684,0.007797538150332789,1.8204784532536746,0.04932051936269592,6714.0,0.6457999999999999,1.1271,1.0590126315789474
6142035f3ac25c70a5c6ca65,0.394,Mo63 S126,16.0,24.666666666666668,42.0,189.0,1.9950225247287592,14.81829839810725,9.203723647844992,2.416933336003759,372.0,-0.9775503658998795,2.6666666666666665,4.936507936507937,6.0,2.0,0.0,11.0,10.0,0.20362244045123212,0.0,0.003123032476916389,0.005291005291005289,0.00828917659773647,2.8853900817779268,0.04891381934034082,6534.0,0.0938999999999999,0.537,0.37681101928374655
6142039c31cf3ef3d4a9f222,0.3999999999999999,Mo63 Se1 S126,16.0,24.71578947368421,42.0,190.0,2.01064336705395,14.81829839810725,9.204314043470143,2.416933336003759,375.0,-0.9829536387785947,2.6,4.966315789473684,6.0,2.0,0.0,11.0,10.0,0.20363881284100335,0.0,0.0031057102812884056,0.005263157894736839,0.008270822561203069,2.8853900817779268,0.0489199443369617,6635.0,0.1244,0.4337999999999999,0.37523746438746436
614203b29cbada84a8676c0f,1.8078,Mo63 W1 Se2 S126,16.0,25.020833333333332,74.0,192.0,2.062633708531411,14.81829839810725,9.204493652765017,2.416933336003759,384.0,-1.0,3.0,5.0,6.0,2.0,0.0,11.0,11.0,0.2044595166323097,0.0,0.004011523522002345,0.005208333333333331,0.007601952955995299,1.8204784532536746,0.04931584583967819,6912.0,1.8056,1.8104,1.8084216666666666
614203b43ac25c70a5c6ca67,0.4213999999999999,Mo63 S126,16.0,24.666666666666668,42.0,189.0,1.9950225247287592,14.81829839810725,9.203884711213197,2.416933336003759,372.0,-0.9775503658998795,2.6666666666666665,4.936507936507937,6.0,2.0,0.0,11.0,10.0,0.20362141298482128,0.0,0.0031205258653359286,0.005291005291005289,0.008261291950483291,2.8853900817779268,0.04891381934034083,6534.0,0.0938999999999999,0.537,0.37681101928374655
614203b6baaf234b3529058a,1.0821,Mo63 W1 S126,16.0,24.926315789473684,74.0,190.0,2.031392023881028,14.81829839810725,9.202712171627644,2.416933336003759,378.0,-0.9831571611104665,3.0,4.936842105263158,6.0,2.0,0.0,11.0,11.0,0.2045003923951465,0.0,0.004055082910099434,0.005263157894736839,0.0077992744253634425,1.8204784532536746,0.04932051936269593,6714.0,0.6457999999999999,1.1271,1.0590126315789474
614203baee0a3fd43fb47e25,0.4296,Mo63 Se2 S126,16.0,24.76439790575916,42.0,191.0,2.0262642093791414,14.81829839810725,9.205343140309454,2.416933336003759,378.0,-0.9933560245064674,2.6666666666666665,5.0,6.0,2.0,0.0,11.0,10.0,0.20360265847867562,0.0,0.0030865806740578215,0.005235602094240835,0.008123386636999748,2.8853900817779268,0.04892318732941323,6732.0,0.2535,0.4375,0.36620928381962864
614203da9cbada84a8676c11,1.8078,Mo63 W1 Se2 S126,16.0,25.020833333333332,74.0,192.0,2.062633708531411,14.81829839810725,9.204493652765015,2.416933336003759,384.0,-1.0,3.0,5.0,6.0,2.0,0.0,11.0,11.0,0.2044595166323097,0.0,0.004011523522002345,0.005208333333333331,0.007601952955995299,1.8204784532536746,0.04931584583967819,6912.0,1.8056,1.8104,1.8084216666666666
614203f1ee0a3fd43fb47e27,0.3597,Mo63 Se2 S126,16.0,24.76439790575916,42.0,191.0,2.0262642093791414,14.81829839810725,9.20534314026083,2.416933336003759,378.0,-0.9933560245064674,2.6666666666666665,5.0,6.0,2.0,0.0,11.0,10.0,0.20360265847867576,0.0,0.0030865806740578215,0.005235602094240836,0.008123386636999748,2.8853900817779268,0.048923187329413226,6732.0,0.2535,0.4375,0.36620928381962864
614204053ac25c70a5c6ca69,0.3027999999999999,Mo63 S126,16.0,24.666666666666668,42.0,189.0,1.9950225247287592,14.81829839810725,9.203558173761923,2.4169333360037593,373.0,-0.9785729680347698,2.6666666666666665,4.944973544973544,6.0,2.0,0.0,11.0,10.0,0.20380454567386433,0.0,0.003121908976268052,0.005291005291005289,0.008231160039207031,2.8853900817779268,0.04911477642140818,6581.0,0.0938999999999999,0.537,0.37681101928374655
61420420ee0a3fd43fb47e29,0.3766,Mo63 Se2 S126,16.0,24.76439790575916,42.0,191.0,2.0262642093791414,14.81829839810725,9.20534314014544,2.416933336003759,378.0,-0.9933560245064674,2.6666666666666665,5.0,6.0,2.0,0.0,11.0,10.0,0.20360265847867634,0.0,0.0030865806740578215,0.005235602094240836,0.008123386636999748,2.8853900817779268,0.04892318732941323,6732.0,0.2535,0.4375,0.36620928381962864
6142042231cf3ef3d4a9f224,0.4175999999999999,Mo63 Se1 S126,16.0,24.71578947368421,42.0,190.0,2.01064336705395,14.81829839810725,9.204483655252437,2.416933336003759,375.0,-0.9853003294753762,2.6666666666666665,4.968421052631579,6.0,2.0,0.0,11.0,10.0,0.2036189218436687,0.0,0.0031034775912119257,0.005263157894736839,0.008216286576687187,2.8853900817779268,0.048919944336961695,6633.0,0.1244,0.4337999999999999,0.37523746438746436
614204349cbada84a8676c13,1.8095,Mo63 W1 Se2 S126,16.0,25.020833333333332,74.0,192.0,2.062633708531411,14.81829839810725,9.204493652765017,2.416933336003759,384.0,-1.0,3.0,5.0,6.0,2.0,0.0,11.0,11.0,0.2044595166323097,0.0,0.004011523522002345,0.005208333333333331,0.007601952955995299,1.8204784532536746,0.04931584583967819,6912.0,1.8056,1.8104,1.8084216666666666
614204414e27a1844a5f0532,1.1384,Mo63 W1 Se1 S126,16.0,24.973821989528794,74.0,191.0,2.0470128662062193,14.81829839810725,9.203690445235594,2.416933336003759,381.0,-0.9914443602906119,3.0,4.968586387434555,6.0,2.0,0.0,11.0,11.0,0.20447848560002427,0.0,0.004033035247933726,0.005235602094240835,0.007711544185025864,1.8204784532536746,0.049319546086242096,6813.0,1.1212,1.1958,1.1463284916201117
6142044331cf3ef3d4a9f226,0.4075,Mo63 Se1 S126,16.0,24.71578947368421,42.0,190.0,2.01064336705395,14.81829839810725,9.20457736891047,2.416933336003759,375.0,-0.9853003294753762,2.6666666666666665,4.968421052631579,6.0,2.0,0.0,11.0,10.0,0.20361211470235832,0.0,0.0031031737343998047,0.005263157894736839,0.008182831895885355,2.8853900817779268,0.0489199443369617,6633.0,0.1244,0.4337999999999999,0.37523746438746436
614204604e27a1844a5f0534,1.1397,Mo63 W1 Se1 S126,16.0,24.973821989528794,74.0,191.0,2.0470128662062193,14.81829839810725,9.203690445224296,2.416933336003759,381.0,-0.9914443602906119,3.0,4.968586387434555,6.0,2.0,0.0,11.0,11.0,0.20447848560002452,0.0,0.004033035247933726,0.005235602094240836,0.007711544185025864,1.8204784532536746,0.049319546086242096,6813.0,1.1212,1.1958,1.1463284916201117
614204803ac25c70a5c6ca6b,0.4146000000000001,Mo63 S126,16.0,24.666666666666668,42.0,189.0,1.9950225247287592,14.81829839810725,9.203780688348498,2.416933336003759,372.0,-0.9775503658998795,2.6666666666666665,4.936507936507937,6.0,2.0,0.0,11.0,10.0,0.20361687873087822,0.0,0.003120171055349634,0.005291005291005289,0.00823598120696945,2.8853900817779268,0.04891381934034082,6534.0,0.0938999999999999,0.537,0.37681101928374655
6142048631cf3ef3d4a9f22a,0.4258999999999999,Mo63 Se1 S126,16.0,24.71578947368421,42.0,190.0,2.01064336705395,14.81829839810725,9.204577368892958,2.416933336003759,375.0,-0.9853003294753762,2.6666666666666665,4.968421052631579,6.0,2.0,0.0,11.0,10.0,0.20361211470235852,0.0,0.0031031737343998043,0.005263157894736839,0.008182831895885355,2.8853900817779268,0.0489199443369617,6633.0,0.1244,0.4337999999999999,0.37523746438746436
614204909cbada84a8676c17,1.8062,Mo63 W1 Se2 S126,16.0,25.020833333333332,74.0,192.0,2.062633708531411,14.81829839810725,9.204493652765015,2.416933336003759,384.0,-1.0,3.0,5.0,6.0,2.0,0.0,11.0,11.0,0.2044595166323097,0.0,0.004011523522002345,0.005208333333333331,0.007601952955995299,1.8204784532536746,0.04931584583967819,6912.0,1.8056,1.8104,1.8084216666666666
614204a531cf3ef3d4a9f22c,0.4204,Mo63 Se1 S126,16.0,24.71578947368421,42.0,190.0,2.01064336705395,14.81829839810725,9.204577368930567,2.416933336003759,375.0,-0.9853003294753762,2.6666666666666665,4.968421052631579,6.0,2.0,0.0,11.0,10.0,0.20361211470235852,0.0,0.0031031737343998043,0.005263157894736839,0.008182831895885355,2.8853900817779268,0.048919944336961695,6633.0,0.1244,0.4337999999999999,0.37523746438746436
614204c731cf3ef3d4a9f22e,0.3129,Mo63 Se1 S126,16.0,24.71578947368421,42.0,190.0,2.01064336705395,14.81829839810725,9.204164378880012,2.416933336003759,376.0,-0.9865985405089595,2.6666666666666665,4.976842105263159,6.0,2.0,0.0,11.0,10.0,0.2038001268201952,0.0,0.0031049043153504497,0.00526315789473684,0.008178089643911474,2.8853900817779268,0.04911877547843738,6680.0,0.1244,0.4337999999999999,0.37523746438746436
614204d8baaf234b35290590,1.1094,Mo63 W1 S126,16.0,24.926315789473684,74.0,190.0,2.031392023881028,14.81829839810725,9.202972615013675,2.416933336003759,378.0,-0.9831571611104665,3.0,4.936842105263158,6.0,2.0,0.0,11.0,11.0,0.2044934305460794,0.0,0.004054774471908984,0.005263157894736841,0.007764123814068772,1.8204784532536746,0.04932051936269592,6714.0,0.6457999999999999,1.1271,1.0590126315789474
614204fcbaaf234b35290592,1.1095000000000002,Mo63 W1 S126,16.0,24.926315789473684,74.0,190.0,2.031392023881028,14.81829839810725,9.203020784014358,2.416933336003759,378.0,-0.9831571611104665,3.0,4.936842105263158,6.0,2.0,0.0,11.0,11.0,0.2044934305460794,0.0,0.004055166591169985,0.005263157894736839,0.0077607449706358226,1.8204784532536746,0.049320519362695936,6714.0,0.6457999999999999,1.1271,1.0590126315789474
614205219cbada84a8676c19,1.8081,Mo63 W1 Se2 S126,16.0,25.020833333333332,74.0,192.0,2.062633708531411,14.81829839810725,9.204493652765015,2.416933336003759,384.0,-1.0,3.0,5.0,6.0,2.0,0.0,11.0,11.0,0.2044595166323097,0.0,0.004011523522002345,0.005208333333333331,0.007601952955995299,1.8204784532536746,0.04931584583967819,6912.0,1.8056,1.8104,1.8084216666666666
6142052aee0a3fd43fb47e2b,0.4191,Mo63 Se2 S126,16.0,24.76439790575916,42.0,191.0,2.0262642093791414,14.81829839810725,9.205343140309454,2.416933336003759,378.0,-0.9933560245064674,2.6666666666666665,5.0,6.0,2.0,0.0,11.0,10.0,0.20360265847867579,0.0,0.0030865806740578215,0.005235602094240836,0.008123386636999748,2.8853900817779268,0.04892318732941323,6732.0,0.2535,0.4375,0.36620928381962864
6142053cbaaf234b35290594,1.113,Mo63 W1 S126,16.0,24.926315789473684,74.0,190.0,2.031392023881028,14.81829839810725,9.20297261482401,2.416933336003759,378.0,-0.9831571611104665,3.0,4.936842105263158,6.0,2.0,0.0,11.0,11.0,0.2044934305460794,0.0,0.004054774471908985,0.005263157894736839,0.007764123814068772,1.8204784532536746,0.04932051936269592,6714.0,0.6457999999999999,1.1271,1.0590126315789474
614205579cbada84a8676c1b,1.8081,Mo63 W1 Se2 S126,16.0,25.020833333333332,74.0,192.0,2.062633708531411,14.81829839810725,9.204493652765015,2.416933336003759,384.0,-1.0,3.0,5.0,6.0,2.0,0.0,11.0,11.0,0.2044595166323097,0.0,0.004011523522002345,0.005208333333333331,0.007601952955995299,1.8204784532536746,0.04931584583967819,6912.0,1.8056,1.8104,1.8084216666666666
614205604e27a1844a5f0540,1.1411,Mo63 W1 Se1 S126,16.0,24.973821989528794,74.0,191.0,2.0470128662062193,14.81829839810725,9.20369044512728,2.416933336003759,381.0,-0.9914443602906119,3.0,4.968586387434555,6.0,2.0,0.0,11.0,11.0,0.20447848560002418,0.0,0.004033035247933726,0.005235602094240835,0.007711544185025864,1.8204784532536746,0.049319546086242096,6813.0,1.1212,1.1958,1.1463284916201117
614205749cbada84a8676c1d,1.8098,Mo63 W1 Se2 S126,16.0,25.020833333333332,74.0,192.0,2.062633708531411,14.81829839810725,9.204493652765017,2.416933336003759,384.0,-1.0,3.0,5.0,6.0,2.0,0.0,11.0,11.0,0.2044595166323097,0.0,0.004011523522002345,0.005208333333333331,0.007601952955995299,1.8204784532536746,0.04931584583967819,6912.0,1.8056,1.8104,1.8084216666666666
61420586baaf234b35290596,1.0895,Mo63 W1 S126,16.0,24.926315789473684,74.0,190.0,2.031392023881028,14.81829839810725,9.202827972356774,2.416933336003759,378.0,-0.9831571611104665,3.0,4.936842105263158,6.0,2.0,0.0,11.0,11.0,0.20449575116243507,0.0,0.004055071481932314,0.00526315789473684,0.007797538150332789,1.8204784532536746,0.04932051936269592,6714.0,0.6457999999999999,1.1271,1.0590126315789474
614205a93ac25c70a5c6ca6d,0.368,Mo63 S126,16.0,24.666666666666668,42.0,189.0,1.9950225247287592,14.81829839810725,9.203287677940875,2.416933336003759,372.0,-0.9775503658998795,2.6666666666666665,4.936507936507937,6.0,2.0,0.0,11.0,10.0,0.20362987841459743,0.0,0.0031216612834580743,0.005291005291005289,0.008344258812325573,2.8853900817779268,0.04891381934034082,6534.0,0.0938999999999999,0.537,0.37681101928374655
614205bf9cbada84a8676c1f,1.8092,Mo63 W1 Se2 S126,16.0,25.020833333333332,74.0,192.0,2.062633708531411,14.81829839810725,9.204493652765017,2.416933336003759,384.0,-1.0,3.0,5.0,6.0,2.0,0.0,11.0,11.0,0.2044595166323097,0.0,0.004011523522002345,0.005208333333333331,0.007601952955995299,1.8204784532536746,0.04931584583967819,6912.0,1.8056,1.8104,1.8084216666666666
614205c54e27a1844a5f0542,1.1365,Mo63 W1 Se1 S126,16.0,24.973821989528794,74.0,191.0,2.0470128662062193,14.81829839810725,9.203690445054882,2.416933336003759,381.0,-0.9914443602906119,3.0,4.968586387434554,6.0,2.0,0.0,11.0,11.0,0.20447848560002435,0.0,0.004033035247933726,0.005235602094240835,0.007711544185025864,1.8204784532536746,0.049319546086242096,6813.0,1.1212,1.1958,1.1463284916201117
614205c7baaf234b35290598,1.0887,Mo63 W1 S126,16.0,24.926315789473684,74.0,190.0,2.031392023881028,14.81829839810725,9.202827972397563,2.416933336003759,378.0,-0.9831571611104665,3.0,4.936842105263158,6.0,2.0,0.0,11.0,11.0,0.20449575116243512,0.0,0.004055071481932315,0.005263157894736841,0.007797538150332789,1.8204784532536746,0.04932051936269593,6714.0,0.6457999999999999,1.1271,1.0590126315789474
614205e54e27a1844a5f0544,1.1421,Mo63 W1 Se1 S126,16.0,24.973821989528794,74.0,191.0,2.0470128662062193,14.81829839810725,9.203690445126862,2.416933336003759,381.0,-0.9914443602906119,3.0,4.968586387434555,6.0,2.0,0.0,11.0,11.0,0.2044784856000243,0.0,0.004033035247933726,0.005235602094240836,0.007711544185025864,1.8204784532536746,0.049319546086242096,6813.0,1.1212,1.1958,1.1463284916201117
6142062631cf3ef3d4a9f23c,0.235,Mo63 Se1 S126,16.0,24.71578947368421,42.0,190.0,2.01064336705395,14.81829839810725,9.204164379043164,2.416933336003759,376.0,-0.9865985405089595,2.6666666666666665,4.976842105263158,6.0,2.0,0.0,11.0,10.0,0.20380012682019444,0.0,0.0031049043153504497,0.005263157894736839,0.008178089643911474,2.8853900817779268,0.04911877547843738,6680.0,0.1244,0.4337999999999999,0.37523746438746436
6142062cee0a3fd43fb47e31,0.3699,Mo63 Se2 S126,16.0,24.76439790575916,42.0,191.0,2.0262642093791414,14.81829839810725,9.20534314024138,2.416933336003759,378.0,-0.9933560245064674,2.6666666666666665,5.0,6.0,2.0,0.0,11.0,10.0,0.20360265847867606,0.0,0.0030865806740578215,0.005235602094240836,0.008123386636999748,2.8853900817779268,0.04892318732941323,6732.0,0.2535,0.4375,0.36620928381962864