_id,band_gap,formula,atomic_numbers_min,atomic_numbers_mean,atomic_numbers_max,num_sites,density,distance_max,distance_mean,distance_min,num_edges,degree_assortativity_coefficient,neighbor_degree_min,neighbor_degree_mean,neighbor_degree_max,graph_clique_number,average_clustering,diameter,radius,global_efficiency,local_efficiency,pagerank_min,pagerank_mean,pagerank_max,adamic_adar_max,adamic_adar_mean,s_metric,min_formula_band_gap,max_formula_band_gap,mean_formula_band_gap
61420b594e27a1844a5f057e,1.1438,Mo63 W1 Se1 S126,16.0,24.973821989528794,74.0,191.0,2.0470128662062193,14.81829839810725,9.203690445028474,2.416933336003759,381.0,-0.9914443602906119,3.0,4.968586387434555,6.0,2.0,0.0,11.0,11.0,0.20447848560002455,0.0,0.004033035247933726,0.005235602094240835,0.007711544185025864,1.8204784532536746,0.049319546086242096,6813.0,1.1212,1.1958,1.1463284916201117
61420b5a31cf3ef3d4a9f27c,0.4210999999999999,Mo63 Se1 S126,16.0,24.71578947368421,42.0,190.0,2.01064336705395,14.81829839810725,9.204705229835199,2.416933336003759,375.0,-0.9853003294753762,2.6666666666666665,4.968421052631579,6.0,2.0,0.0,11.0,10.0,0.20360756187407916,0.0,0.0031031429615504783,0.00526315789473684,0.008170708138232579,2.8853900817779268,0.0489199443369617,6633.0,0.1244,0.4337999999999999,0.37523746438746436
61420b7931cf3ef3d4a9f27e,0.4139,Mo63 Se1 S126,16.0,24.71578947368421,42.0,190.0,2.01064336705395,14.81829839810725,9.20460522123935,2.416933336003759,375.0,-0.9853003294753762,2.6666666666666665,4.968421052631579,6.0,2.0,0.0,11.0,10.0,0.20360932996273115,0.0,0.0031032856561492147,0.005263157894736839,0.008179265352670257,2.8853900817779268,0.048919944336961695,6633.0,0.1244,0.4337999999999999,0.37523746438746436
61420b8a9cbada84a8676c4d,1.8069,Mo63 W1 Se2 S126,16.0,25.020833333333332,74.0,192.0,2.062633708531411,14.81829839810725,9.204493652765017,2.416933336003759,384.0,-1.0,3.0,5.0,6.0,2.0,0.0,11.0,11.0,0.2044595166323097,0.0,0.004011523522002345,0.005208333333333331,0.007601952955995299,1.8204784532536746,0.049315845839678185,6912.0,1.8056,1.8104,1.8084216666666666
61420b914e27a1844a5f0580,1.1464,Mo63 W1 Se1 S126,16.0,24.973821989528794,74.0,191.0,2.0470128662062193,14.81829839810725,9.203690445031416,2.416933336003759,381.0,-0.9914443602906119,3.0,4.968586387434555,6.0,2.0,0.0,11.0,11.0,0.20447848560002438,0.0,0.004033035247933726,0.005235602094240836,0.007711544185025864,1.8204784532536746,0.04931954608624209,6813.0,1.1212,1.1958,1.1463284916201117
61420ba0ee0a3fd43fb47e51,0.4283,Mo63 Se2 S126,16.0,24.76439790575916,42.0,191.0,2.0262642093791414,14.81829839810725,9.205343140163281,2.416933336003759,378.0,-0.9933560245064674,2.6666666666666665,5.0,6.0,2.0,0.0,11.0,10.0,0.2036026584786757,0.0,0.0030865806740578215,0.005235602094240836,0.008123386636999748,2.8853900817779268,0.04892318732941324,6732.0,0.2535,0.4375,0.36620928381962864
61420bd44e27a1844a5f0584,1.1495000000000002,Mo63 W1 Se1 S126,16.0,24.973821989528794,74.0,191.0,2.0470128662062193,14.81829839810725,9.20369044512728,2.416933336003759,381.0,-0.9914443602906119,3.0,4.968586387434555,6.0,2.0,0.0,11.0,11.0,0.20447848560002435,0.0,0.004033035247933726,0.005235602094240836,0.007711544185025864,1.8204784532536746,0.049319546086242096,6813.0,1.1212,1.1958,1.1463284916201117
61420bd99cbada84a8676c4f,1.81,Mo63 W1 Se2 S126,16.0,25.020833333333332,74.0,192.0,2.062633708531411,14.81829839810725,9.204493652765017,2.416933336003759,384.0,-1.0,3.0,5.0,6.0,2.0,0.0,11.0,11.0,0.2044595166323097,0.0,0.004011523522002345,0.005208333333333331,0.007601952955995299,1.8204784532536746,0.04931584583967819,6912.0,1.8056,1.8104,1.8084216666666666
61420bdbee0a3fd43fb47e53,0.2789,Mo63 Se2 S126,16.0,24.76439790575916,42.0,191.0,2.0262642093791414,14.81829839810725,9.205343140237304,2.416933336003759,378.0,-0.9933560245064674,2.6666666666666665,5.0,6.0,2.0,0.0,11.0,10.0,0.20360265847867595,0.0,0.0030865806740578215,0.005235602094240835,0.008123386636999748,2.8853900817779268,0.04892318732941323,6732.0,0.2535,0.4375,0.36620928381962864
61420bdd3ac25c70a5c6ca89,0.417,Mo63 S126,16.0,24.666666666666668,42.0,189.0,1.9950225247287592,14.81829839810725,9.203488440791746,2.416933336003759,372.0,-0.9775503658998795,2.6666666666666665,4.936507936507937,6.0,2.0,0.0,11.0,10.0,0.20363814281833598,0.0,0.0031221333525909833,0.005291005291005289,0.008279537977418002,2.8853900817779268,0.04891381934034082,6534.0,0.0938999999999999,0.537,0.37681101928374655
61420bf9ee0a3fd43fb47e55,0.3598,Mo63 Se2 S126,16.0,24.76439790575916,42.0,191.0,2.0262642093791414,14.81829839810725,9.205343140259355,2.416933336003759,378.0,-0.9933560245064674,2.6666666666666665,5.0,6.0,2.0,0.0,11.0,10.0,0.20360265847867565,0.0,0.0030865806740578215,0.005235602094240836,0.008123386636999748,2.8853900817779268,0.048923187329413226,6732.0,0.2535,0.4375,0.36620928381962864
61420c2731cf3ef3d4a9f286,0.3377,Mo63 Se1 S126,16.0,24.71578947368421,42.0,190.0,2.01064336705395,14.81829839810725,9.204483655023287,2.416933336003759,375.0,-0.9853003294753762,2.6666666666666665,4.968421052631579,6.0,2.0,0.0,11.0,10.0,0.20361892184366814,0.0,0.0031034775912119257,0.005263157894736839,0.008216286576687187,2.8853900817779268,0.048919944336961695,6633.0,0.1244,0.4337999999999999,0.37523746438746436
61420c45baaf234b352905b6,1.1066,Mo63 W1 S126,16.0,24.926315789473684,74.0,190.0,2.031392023881028,14.81829839810725,9.202533733363824,2.416933336003759,378.0,-0.9722735149569642,3.0,4.947368421052632,6.0,2.0,0.0,11.0,10.0,0.20399583615124195,0.0,0.004054881043928468,0.00526315789473684,0.007837098689347916,1.8375687735469761,0.04936712216688493,6732.0,0.6457999999999999,1.1271,1.0590126315789474
61420c4a4e27a1844a5f0586,1.145,Mo63 W1 Se1 S126,16.0,24.973821989528794,74.0,191.0,2.0470128662062193,14.81829839810725,9.20369044517453,2.416933336003759,381.0,-0.9914443602906119,3.0,4.968586387434555,6.0,2.0,0.0,11.0,11.0,0.20447848560002457,0.0,0.004033035247933726,0.005235602094240836,0.007711544185025864,1.8204784532536746,0.049319546086242096,6813.0,1.1212,1.1958,1.1463284916201117
61420c4b31cf3ef3d4a9f288,0.3991,Mo63 Se1 S126,16.0,24.71578947368421,42.0,190.0,2.01064336705395,14.81829839810725,9.204605221330613,2.416933336003759,375.0,-0.9853003294753762,2.6666666666666665,4.968421052631579,6.0,2.0,0.0,11.0,10.0,0.20360932996273143,0.0,0.0031032856561492147,0.005263157894736839,0.008179265352670257,2.8853900817779268,0.048919944336961695,6633.0,0.1244,0.4337999999999999,0.37523746438746436
61420c50ee0a3fd43fb47e57,0.3581,Mo63 Se2 S126,16.0,24.76439790575916,42.0,191.0,2.0262642093791414,14.81829839810725,9.205343140288635,2.416933336003759,378.0,-0.9933560245064674,2.6666666666666665,5.0,6.0,2.0,0.0,11.0,10.0,0.20360265847867628,0.0,0.0030865806740578215,0.005235602094240836,0.008123386636999748,2.8853900817779268,0.048923187329413226,6732.0,0.2535,0.4375,0.36620928381962864
61420c67baaf234b352905b8,1.1075,Mo63 W1 S126,16.0,24.926315789473684,74.0,190.0,2.031392023881028,14.81829839810725,9.20253373350132,2.416933336003759,378.0,-0.9722735149569642,3.0,4.947368421052632,6.0,2.0,0.0,11.0,10.0,0.2039958361512424,0.0,0.004054881043928467,0.005263157894736839,0.007837098689347916,1.8375687735469761,0.049367122166884936,6732.0,0.6457999999999999,1.1271,1.0590126315789474
61420c779cbada84a8676c53,1.8072,Mo63 W1 Se2 S126,16.0,25.020833333333332,74.0,192.0,2.062633708531411,14.81829839810725,9.204493652765017,2.416933336003759,384.0,-1.0,3.0,5.0,6.0,2.0,0.0,11.0,11.0,0.2044595166323097,0.0,0.004011523522002345,0.005208333333333331,0.007601952955995299,1.8204784532536746,0.04931584583967819,6912.0,1.8056,1.8104,1.8084216666666666
61420c913ac25c70a5c6ca8d,0.4301,Mo63 S126,16.0,24.666666666666668,42.0,189.0,1.9950225247287592,14.81829839810725,9.203975545574263,2.416933336003759,372.0,-0.9775503658998795,2.6666666666666665,4.936507936507937,6.0,2.0,0.0,11.0,10.0,0.20361453342711439,0.0,0.003121334804112156,0.005291005291005289,0.008227164473767956,2.8853900817779268,0.04891381934034083,6534.0,0.0938999999999999,0.537,0.37681101928374655
61420ca14e27a1844a5f0588,1.1785,Mo63 W1 Se1 S126,16.0,24.973821989528794,74.0,191.0,2.0470128662062193,14.81829839810725,9.203690445163195,2.416933336003759,381.0,-0.9914443602906119,3.0,4.968586387434555,6.0,2.0,0.0,11.0,11.0,0.2044784856000244,0.0,0.004033035247933726,0.005235602094240835,0.007711544185025864,1.8204784532536746,0.04931954608624209,6813.0,1.1212,1.1958,1.1463284916201117
61420cbabaaf234b352905ba,1.1035,Mo63 W1 S126,16.0,24.926315789473684,74.0,190.0,2.031392023881028,14.81829839810725,9.202997615942106,2.416933336003759,378.0,-0.9831571611104665,3.0,4.936842105263158,6.0,2.0,0.0,11.0,11.0,0.2044934305460794,0.0,0.004055166591169985,0.005263157894736839,0.0077607449706358226,1.8204784532536746,0.04932051936269592,6714.0,0.6457999999999999,1.1271,1.0590126315789474
61420cbeee0a3fd43fb47e59,0.3817,Mo63 Se2 S126,16.0,24.76439790575916,42.0,191.0,2.0262642093791414,14.81829839810725,9.205343140313873,2.416933336003759,378.0,-0.9933560245064674,2.6666666666666665,5.0,6.0,2.0,0.0,11.0,10.0,0.2036026584786761,0.0,0.0030865806740578215,0.005235602094240836,0.008123386636999748,2.8853900817779268,0.048923187329413226,6732.0,0.2535,0.4375,0.36620928381962864
61420cc031cf3ef3d4a9f28e,0.392,Mo63 Se1 S126,16.0,24.71578947368421,42.0,190.0,2.01064336705395,14.81829839810725,9.20465722352034,2.416933336003759,375.0,-0.9853003294753762,2.6666666666666665,4.968421052631579,6.0,2.0,0.0,11.0,10.0,0.20360932996273112,0.0,0.00310333695294168,0.005263157894736839,0.008175319250241442,2.8853900817779268,0.0489199443369617,6633.0,0.1244,0.4337999999999999,0.37523746438746436
61420d3a4e27a1844a5f058c,1.1451,Mo63 W1 Se1 S126,16.0,24.973821989528794,74.0,191.0,2.0470128662062193,14.81829839810725,9.20369044517016,2.416933336003759,381.0,-0.9914443602906119,3.0,4.968586387434555,6.0,2.0,0.0,11.0,11.0,0.20447848560002443,0.0,0.004033035247933726,0.005235602094240836,0.007711544185025864,1.8204784532536746,0.04931954608624209,6813.0,1.1212,1.1958,1.1463284916201117
61420d8e31cf3ef3d4a9f292,0.3562,Mo63 Se1 S126,16.0,24.71578947368421,42.0,190.0,2.01064336705395,14.81829839810725,9.204705229787958,2.416933336003759,375.0,-0.9853003294753762,2.6666666666666665,4.968421052631579,6.0,2.0,0.0,11.0,10.0,0.20360756187407922,0.0,0.0031031429615504783,0.005263157894736839,0.008170708138232579,2.8853900817779268,0.0489199443369617,6633.0,0.1244,0.4337999999999999,0.37523746438746436
61420da69cbada84a8676c57,1.8092,Mo63 W1 Se2 S126,16.0,25.020833333333332,74.0,192.0,2.062633708531411,14.81829839810725,9.204493652765017,2.416933336003759,384.0,-1.0,3.0,5.0,6.0,2.0,0.0,11.0,11.0,0.2044595166323097,0.0,0.004011523522002345,0.005208333333333331,0.007601952955995299,1.8204784532536746,0.049315845839678185,6912.0,1.8056,1.8104,1.8084216666666666
61420dc34e27a1844a5f0592,1.1455,Mo63 W1 Se1 S126,16.0,24.973821989528794,74.0,191.0,2.0470128662062193,14.81829839810725,9.203690445163195,2.416933336003759,381.0,-0.9914443602906119,3.0,4.968586387434555,6.0,2.0,0.0,11.0,11.0,0.20447848560002435,0.0,0.004033035247933726,0.005235602094240835,0.007711544185025864,1.8204784532536746,0.049319546086242096,6813.0,1.1212,1.1958,1.1463284916201117
61420de54e27a1844a5f0594,1.1445,Mo63 W1 Se1 S126,16.0,24.973821989528794,74.0,191.0,2.0470128662062193,14.81829839810725,9.203690445132798,2.416933336003759,381.0,-0.9914443602906119,3.0,4.968586387434555,6.0,2.0,0.0,11.0,11.0,0.20447848560002457,0.0,0.004033035247933726,0.005235602094240835,0.007711544185025864,1.8204784532536746,0.049319546086242096,6813.0,1.1212,1.1958,1.1463284916201117
61420e0331cf3ef3d4a9f296,0.3177,Mo63 Se1 S126,16.0,24.71578947368421,42.0,190.0,2.01064336705395,14.81829839810725,9.20440848535861,2.416933336003759,375.0,-0.9853003294753762,2.6666666666666665,4.968421052631579,6.0,2.0,0.0,11.0,10.0,0.2036171537550162,0.0,0.0031036280812759514,0.005263157894736841,0.008244474761860337,2.8853900817779268,0.048919944336961695,6633.0,0.1244,0.4337999999999999,0.37523746438746436
61420e064e27a1844a5f0596,1.1494,Mo63 W1 Se1 S126,16.0,24.973821989528794,74.0,191.0,2.0470128662062193,14.81829839810725,9.203690445126862,2.416933336003759,381.0,-0.9914443602906119,3.0,4.968586387434555,6.0,2.0,0.0,11.0,11.0,0.20447848560002418,0.0,0.004033035247933726,0.005235602094240836,0.007711544185025864,1.8204784532536746,0.04931954608624209,6813.0,1.1212,1.1958,1.1463284916201117
61420e1cbaaf234b352905c2,1.0205,Mo63 W1 S126,16.0,24.926315789473684,74.0,190.0,2.031392023881028,14.81829839810725,9.202666476872414,2.416933336003759,378.0,-0.9831571611104665,3.0,4.936842105263159,6.0,2.0,0.0,11.0,11.0,0.20450039239514656,0.0,0.004055082910099434,0.005263157894736839,0.0077992744253634425,1.8204784532536746,0.049320519362695936,6714.0,0.6457999999999999,1.1271,1.0590126315789474
61420e2831cf3ef3d4a9f298,0.4179999999999999,Mo63 Se1 S126,16.0,24.71578947368421,42.0,190.0,2.01064336705395,14.81829839810725,9.20448365503856,2.416933336003759,375.0,-0.9853003294753762,2.6666666666666665,4.968421052631579,6.0,2.0,0.0,11.0,10.0,0.20361892184366887,0.0,0.0031034775912119257,0.005263157894736839,0.008216286576687187,2.8853900817779268,0.0489199443369617,6633.0,0.1244,0.4337999999999999,0.37523746438746436
61420e2b9cbada84a8676c5b,1.8104,Mo63 W1 Se2 S126,16.0,25.020833333333332,74.0,192.0,2.062633708531411,14.81829839810725,9.204493652765017,2.416933336003759,384.0,-1.0,3.0,5.0,6.0,2.0,0.0,11.0,11.0,0.2044595166323097,0.0,0.004011523522002345,0.005208333333333331,0.007601952955995299,1.8204784532536746,0.04931584583967819,6912.0,1.8056,1.8104,1.8084216666666666
61420e4d31cf3ef3d4a9f29a,0.2899,Mo63 Se1 S126,16.0,24.71578947368421,42.0,190.0,2.01064336705395,14.81829839810725,9.20454802014407,2.416933336003759,375.0,-0.9853003294753762,2.6666666666666665,4.968421052631579,6.0,2.0,0.0,11.0,10.0,0.2036121147023582,0.0,0.0031031309638816173,0.005263157894736839,0.008182747168517978,2.8853900817779268,0.04891994433696169,6633.0,0.1244,0.4337999999999999,0.37523746438746436
61420e5f9cbada84a8676c5d,1.8058,Mo63 W1 Se2 S126,16.0,25.020833333333332,74.0,192.0,2.062633708531411,14.81829839810725,9.204493652765017,2.416933336003759,384.0,-1.0,3.0,5.0,6.0,2.0,0.0,11.0,11.0,0.2044595166323097,0.0,0.004011523522002345,0.005208333333333331,0.007601952955995299,1.8204784532536746,0.049315845839678185,6912.0,1.8056,1.8104,1.8084216666666666
61420e7231cf3ef3d4a9f29c,0.4197000000000001,Mo63 Se1 S126,16.0,24.71578947368421,42.0,190.0,2.01064336705395,14.81829839810725,9.204483655204283,2.416933336003759,375.0,-0.9853003294753762,2.6666666666666665,4.968421052631579,6.0,2.0,0.0,11.0,10.0,0.2036189218436685,0.0,0.0031034775912119257,0.005263157894736839,0.008216286576687187,2.8853900817779268,0.048919944336961695,6633.0,0.1244,0.4337999999999999,0.37523746438746436
61420e754e27a1844a5f059a,1.1469,Mo63 W1 Se1 S126,16.0,24.973821989528794,74.0,191.0,2.0470128662062193,14.81829839810725,9.203690445151897,2.416933336003759,381.0,-0.9914443602906119,3.0,4.968586387434555,6.0,2.0,0.0,11.0,11.0,0.2044784856000245,0.0,0.004033035247933726,0.005235602094240836,0.007711544185025864,1.8204784532536746,0.049319546086242096,6813.0,1.1212,1.1958,1.1463284916201117
61420e86baaf234b352905c4,1.1058,Mo63 W1 S126,16.0,24.926315789473684,74.0,190.0,2.031392023881028,14.81829839810725,9.202918216326305,2.416933336003759,378.0,-0.9831571611104665,3.0,4.936842105263158,6.0,2.0,0.0,11.0,11.0,0.2044957511624351,0.0,0.004055463214741476,0.005263157894736841,0.007771702333642349,1.8204784532536746,0.049320519362695936,6714.0,0.6457999999999999,1.1271,1.0590126315789474
61420e993ac25c70a5c6ca95,0.4134,Mo63 S126,16.0,24.666666666666668,42.0,189.0,1.9950225247287592,14.81829825157687,9.2037844209953,2.416933336003759,372.0,-0.9775503658998795,2.6666666666666665,4.936507936507937,6.0,2.0,0.0,11.0,10.0,0.20361969309539443,0.0,0.0031225318069356936,0.005291005291005288,0.00823036802444185,2.8853900817779268,0.04891381934034082,6534.0,0.0938999999999999,0.537,0.37681101928374655
61420eb7baaf234b352905c6,0.945,Mo63 W1 S126,16.0,24.926315789473684,74.0,190.0,2.031392023881028,14.81829839810725,9.202537088130185,2.416933336003759,378.0,-0.979463264802814,3.0,4.940350877192982,6.0,2.0,0.0,11.0,11.0,0.2045143160932807,0.0,0.004054792094874229,0.005263157894736841,0.007811830595938936,1.8375687735469761,0.04933605363075893,6720.0,0.6457999999999999,1.1271,1.0590126315789474
61420ebb31cf3ef3d4a9f2a0,0.2915,Mo63 Se1 S126,16.0,24.71578947368421,42.0,190.0,2.01064336705395,14.81829839810725,9.204252219785035,2.416933336003759,375.0,-0.980606948081815,2.6,4.96421052631579,6.0,2.0,0.0,11.0,10.0,0.2036292209600657,0.0,0.003106236454013171,0.005263157894736839,0.008237205223245652,2.8853900817779268,0.048919944336961695,6637.0,0.1244,0.4337999999999999,0.37523746438746436
61420ebbee0a3fd43fb47e61,0.3185,Mo63 Se2 S126,16.0,24.76439790575916,42.0,191.0,2.0262642093791414,14.81829839810725,9.205343140237305,2.416933336003759,378.0,-0.9933560245064674,2.6666666666666665,5.0,6.0,2.0,0.0,11.0,10.0,0.2036026584786756,0.0,0.0030865806740578215,0.005235602094240836,0.008123386636999748,2.8853900817779268,0.048923187329413226,6732.0,0.2535,0.4375,0.36620928381962864
61420ecd9cbada84a8676c61,1.8096,Mo63 W1 Se2 S126,16.0,25.020833333333332,74.0,192.0,2.062633708531411,14.81829839810725,9.204493652765017,2.416933336003759,384.0,-1.0,3.0,5.0,6.0,2.0,0.0,11.0,11.0,0.2044595166323097,0.0,0.004011523522002345,0.005208333333333331,0.007601952955995299,1.8204784532536746,0.04931584583967819,6912.0,1.8056,1.8104,1.8084216666666666
61420edabaaf234b352905c8,0.6681,Mo63 W1 S126,16.0,24.926315789473684,74.0,190.0,2.031392023881028,14.81829839810725,9.202607939167372,2.416933336003759,378.0,-0.979463264802814,3.0,4.940350877192982,6.0,2.0,0.0,11.0,11.0,0.2045143160932808,0.0,0.004054792094874228,0.005263157894736839,0.007811830595938936,1.8375687735469761,0.04933605363075893,6720.0,0.6457999999999999,1.1271,1.0590126315789474
61420eee3ac25c70a5c6ca97,0.354,Mo63 S126,16.0,24.666666666666668,42.0,189.0,1.9950225247287592,14.81829839810725,9.204070097469588,2.416933336003759,372.0,-0.9775503658998795,2.6666666666666665,4.936507936507937,6.0,2.0,0.0,11.0,10.0,0.2036151811776776,0.0,0.0031203529306160814,0.005291005291005289,0.008214849975627925,2.8853900817779268,0.04891381934034082,6534.0,0.0938999999999999,0.537,0.37681101928374655
61420f4f4e27a1844a5f05a0,1.1463,Mo63 W1 Se1 S126,16.0,24.973821989528794,74.0,191.0,2.0470128662062193,14.81829839810725,9.203690445174528,2.416933336003759,381.0,-0.9914443602906119,3.0,4.968586387434555,6.0,2.0,0.0,11.0,11.0,0.20447848560002457,0.0,0.004033035247933726,0.005235602094240836,0.007711544185025864,1.8204784532536746,0.04931954608624209,6813.0,1.1212,1.1958,1.1463284916201117
61420f5d3ac25c70a5c6ca99,0.4198,Mo63 S126,16.0,24.666666666666668,42.0,189.0,1.9950225247287592,14.81829839810725,9.203663850381652,2.416933336003759,372.0,-0.9775503658998795,2.6666666666666665,4.936507936507937,6.0,2.0,0.0,11.0,10.0,0.20362844889611256,0.0,0.003121788778050398,0.005291005291005289,0.00826166286024269,2.8853900817779268,0.04891381934034082,6534.0,0.0938999999999999,0.537,0.37681101928374655
61420f6231cf3ef3d4a9f2a4,0.4178,Mo63 Se1 S126,16.0,24.71578947368421,42.0,190.0,2.01064336705395,14.81829839810725,9.204483655085722,2.416933336003759,375.0,-0.9853003294753762,2.6666666666666665,4.968421052631579,6.0,2.0,0.0,11.0,10.0,0.20361892184366878,0.0,0.0031034775912119257,0.00526315789473684,0.008216286576687187,2.8853900817779268,0.0489199443369617,6633.0,0.1244,0.4337999999999999,0.37523746438746436
61420f8731cf3ef3d4a9f2a6,0.4014,Mo63 Se1 S126,16.0,24.71578947368421,42.0,190.0,2.01064336705395,14.81829839810725,9.204314043515454,2.416933336003759,375.0,-0.9829536387785947,2.6,4.9663157894736845,6.0,2.0,0.0,11.0,10.0,0.20363881284100263,0.0,0.0031057102812884056,0.005263157894736839,0.008270822561203069,2.8853900817779268,0.048919944336961695,6635.0,0.1244,0.4337999999999999,0.37523746438746436