_id,band_gap,formula,atomic_numbers_min,atomic_numbers_mean,atomic_numbers_max,num_sites,density,distance_max,distance_mean,distance_min,num_edges,degree_assortativity_coefficient,neighbor_degree_min,neighbor_degree_mean,neighbor_degree_max,graph_clique_number,average_clustering,diameter,radius,global_efficiency,local_efficiency,pagerank_min,pagerank_mean,pagerank_max,adamic_adar_max,adamic_adar_mean,s_metric,min_formula_band_gap,max_formula_band_gap,mean_formula_band_gap
6141dde94e27a1844a5f02ce,1.1488,Mo63 W1 Se1 S126,16.0,24.973821989528794,74.0,191.0,2.0470128662062193,14.81829839810725,9.203690445242527,2.416933336003759,381.0,-0.9914443602906119,3.0,4.968586387434555,6.0,2.0,0.0,11.0,11.0,0.20447848560002435,0.0,0.004033035247933726,0.005235602094240835,0.007711544185025864,1.8204784532536746,0.04931954608624209,6813.0,1.1212,1.1958,1.1463284916201117
6141ddf7ee0a3fd43fb47c75,0.3575,Mo63 Se2 S126,16.0,24.76439790575916,42.0,191.0,2.0262642093791414,14.81829839810725,9.20534314014544,2.416933336003759,378.0,-0.9933560245064674,2.6666666666666665,5.0,6.0,2.0,0.0,11.0,10.0,0.20360265847867623,0.0,0.0030865806740578215,0.005235602094240835,0.008123386636999748,2.8853900817779268,0.04892318732941324,6732.0,0.2535,0.4375,0.36620928381962864
6141ddfbbaaf234b352903e4,0.9535,Mo63 W1 S126,16.0,24.926315789473684,74.0,190.0,2.031392023881028,14.81829839810725,9.202713836719862,2.416933336003759,378.0,-0.9831571611104665,3.0,4.936842105263158,6.0,2.0,0.0,11.0,11.0,0.20450039239514653,0.0,0.004055168217885793,0.00526315789473684,0.00782442816980002,1.8204784532536746,0.04932051936269592,6714.0,0.6457999999999999,1.1271,1.0590126315789474
6141de0631cf3ef3d4a9f004,0.268,Mo63 Se1 S126,16.0,24.71578947368421,42.0,190.0,2.01064336705395,14.81829839810725,9.204657223504896,2.416933336003759,375.0,-0.9853003294753762,2.6666666666666665,4.968421052631579,6.0,2.0,0.0,11.0,10.0,0.20360932996273112,0.0,0.00310333695294168,0.005263157894736839,0.008175319250241442,2.8853900817779268,0.0489199443369617,6633.0,0.1244,0.4337999999999999,0.37523746438746436
6141de079cbada84a8676a61,1.8095,Mo63 W1 Se2 S126,16.0,25.020833333333332,74.0,192.0,2.062633708531411,14.81829839810725,9.204493652765015,2.416933336003759,384.0,-1.0,3.0,5.0,6.0,2.0,0.0,11.0,11.0,0.2044595166323097,0.0,0.004011523522002345,0.005208333333333331,0.007601952955995299,1.8204784532536746,0.04931584583967819,6912.0,1.8056,1.8104,1.8084216666666666
6141de0b3ac25c70a5c6c965,0.359,Mo63 S126,16.0,24.666666666666668,42.0,189.0,1.9950225247287592,14.81829839810725,9.202935454255767,2.416933336003759,372.0,-0.966684246407942,2.5,4.933509700176367,6.0,2.0,0.0,11.0,10.0,0.20368272592607328,0.0,0.0031263163110362624,0.005291005291005289,0.00841903216424641,2.8853900817779268,0.04892951704240724,6546.0,0.0938999999999999,0.537,0.37681101928374655
6141de1931cf3ef3d4a9f006,0.4155,Mo63 Se1 S126,16.0,24.71578947368421,42.0,190.0,2.01064336705395,14.81829839810725,9.20465722359046,2.416933336003759,375.0,-0.9853003294753762,2.6666666666666665,4.968421052631579,6.0,2.0,0.0,11.0,10.0,0.20360932996273168,0.0,0.00310333695294168,0.005263157894736839,0.008175319250241442,2.8853900817779268,0.048919944336961695,6633.0,0.1244,0.4337999999999999,0.37523746438746436
6141de1a9cbada84a8676a63,1.8064,Mo63 W1 Se2 S126,16.0,25.020833333333332,74.0,192.0,2.062633708531411,14.81829839810725,9.204493652765015,2.416933336003759,384.0,-1.0,3.0,5.0,6.0,2.0,0.0,11.0,11.0,0.2044595166323097,0.0,0.004011523522002345,0.005208333333333331,0.007601952955995299,1.8204784532536746,0.049315845839678185,6912.0,1.8056,1.8104,1.8084216666666666
6141de1cee0a3fd43fb47c79,0.4372,Mo63 Se2 S126,16.0,24.76439790575916,42.0,191.0,2.0262642093791414,14.81829839810725,9.205343140277197,2.416933336003759,378.0,-0.9933560245064674,2.6666666666666665,5.0,6.0,2.0,0.0,11.0,10.0,0.2036026584786758,0.0,0.0030865806740578215,0.005235602094240836,0.008123386636999748,2.8853900817779268,0.048923187329413226,6732.0,0.2535,0.4375,0.36620928381962864
6141de393ac25c70a5c6c967,0.4198,Mo63 S126,16.0,24.666666666666668,42.0,189.0,1.9950225247287592,14.81829839810725,9.203663658927603,2.416933336003759,372.0,-0.9775503658998795,2.6666666666666665,4.936507936507937,6.0,2.0,0.0,11.0,10.0,0.20362156933840553,0.0,0.003120067281308549,0.005291005291005289,0.008239831988427614,2.8853900817779268,0.04891381934034082,6534.0,0.0938999999999999,0.537,0.37681101928374655
6141de4e9cbada84a8676a67,1.8086,Mo63 W1 Se2 S126,16.0,25.020833333333332,74.0,192.0,2.062633708531411,14.81829839810725,9.204493652765015,2.416933336003759,384.0,-1.0,3.0,5.0,6.0,2.0,0.0,11.0,11.0,0.2044595166323097,0.0,0.004011523522002345,0.005208333333333331,0.007601952955995299,1.8204784532536746,0.04931584583967819,6912.0,1.8056,1.8104,1.8084216666666666
6141de55baaf234b352903ea,1.1044999999999998,Mo63 W1 S126,16.0,24.926315789473684,74.0,190.0,2.031392023881028,14.81829839810725,9.20308828687079,2.416933336003759,378.0,-0.9831571611104665,3.0,4.936842105263158,6.0,2.0,0.0,11.0,11.0,0.2044934305460794,0.0,0.004055366153099715,0.005263157894736839,0.007755689592411446,1.8204784532536746,0.04932051936269592,6714.0,0.6457999999999999,1.1271,1.0590126315789474
6141de57ee0a3fd43fb47c7d,0.3597,Mo63 Se2 S126,16.0,24.76439790575916,42.0,191.0,2.0262642093791414,14.81829839810725,9.205343140197238,2.416933336003759,378.0,-0.9933560245064674,2.6666666666666665,5.0,6.0,2.0,0.0,11.0,10.0,0.20360265847867626,0.0,0.0030865806740578215,0.005235602094240836,0.008123386636999748,2.8853900817779268,0.04892318732941323,6732.0,0.2535,0.4375,0.36620928381962864
6141de644e27a1844a5f02da,1.1481,Mo63 W1 Se1 S126,16.0,24.973821989528794,74.0,191.0,2.0470128662062193,14.81829839810725,9.2036904451112,2.416933336003759,381.0,-0.9914443602906119,3.0,4.968586387434555,6.0,2.0,0.0,11.0,11.0,0.20447848560002457,0.0,0.004033035247933726,0.005235602094240836,0.007711544185025864,1.8204784532536746,0.049319546086242096,6813.0,1.1212,1.1958,1.1463284916201117
6141de6531cf3ef3d4a9f00e,0.3891,Mo63 Se1 S126,16.0,24.71578947368421,42.0,190.0,2.01064336705395,14.81829839810725,9.20485143521188,2.416933336003759,375.0,-0.9853003294753762,2.6666666666666665,4.968421052631579,6.0,2.0,0.0,11.0,10.0,0.20360643672675593,0.0,0.0031032393139410253,0.00526315789473684,0.008167590743573993,2.8853900817779268,0.0489199443369617,6633.0,0.1244,0.4337999999999999,0.37523746438746436
6141de69baaf234b352903ec,1.107,Mo63 W1 S126,16.0,24.926315789473684,74.0,190.0,2.031392023881028,14.81829839810725,9.202918216255766,2.416933336003759,378.0,-0.9831571611104665,3.0,4.936842105263158,6.0,2.0,0.0,11.0,11.0,0.20449575116243515,0.0,0.004055463214741477,0.005263157894736841,0.007771702333642349,1.8204784532536746,0.04932051936269592,6714.0,0.6457999999999999,1.1271,1.0590126315789474
6141de733ac25c70a5c6c969,0.3823,Mo63 S126,16.0,24.666666666666668,42.0,189.0,1.9950225247287592,14.81829839810725,9.203595735844553,2.416933336003759,372.0,-0.9775503658998795,2.6666666666666665,4.936507936507936,6.0,2.0,0.0,11.0,10.0,0.20362487509990101,0.0,0.0031203688459773855,0.005291005291005289,0.00829173346885321,2.8853900817779268,0.04891381934034082,6534.0,0.0938999999999999,0.537,0.37681101928374655
6141de7c9cbada84a8676a6b,1.8081,Mo63 W1 Se2 S126,16.0,25.020833333333332,74.0,192.0,2.062633708531411,14.81829839810725,9.204493652765015,2.416933336003759,384.0,-1.0,3.0,5.0,6.0,2.0,0.0,11.0,11.0,0.2044595166323097,0.0,0.004011523522002345,0.005208333333333331,0.007601952955995299,1.8204784532536746,0.04931584583967819,6912.0,1.8056,1.8104,1.8084216666666666
6141de7dbaaf234b352903ee,1.113,Mo63 W1 S126,16.0,24.926315789473684,74.0,190.0,2.031392023881028,14.81829839810725,9.203130769326327,2.416933336003759,378.0,-0.9831571611104665,3.0,4.936842105263158,6.0,2.0,0.0,11.0,11.0,0.20449203817626596,0.0,0.004054773871902171,0.005263157894736839,0.007755110086250584,1.8204784532536746,0.04932051936269592,6714.0,0.6457999999999999,1.1271,1.0590126315789474
6141de8e31cf3ef3d4a9f012,0.4129,Mo63 Se1 S126,16.0,24.71578947368421,42.0,190.0,2.01064336705395,14.81829839810725,9.204750040550454,2.416933336003759,375.0,-0.9853003294753762,2.6666666666666665,4.968421052631579,6.0,2.0,0.0,11.0,10.0,0.20360756187407944,0.0,0.003103458209969202,0.0052631578947368385,0.008169828111344186,2.8853900817779268,0.0489199443369617,6633.0,0.1244,0.4337999999999999,0.37523746438746436
6141de994e27a1844a5f02e0,1.145,Mo63 W1 Se1 S126,16.0,24.973821989528794,74.0,191.0,2.0470128662062193,14.81829839810725,9.203690445181458,2.416933336003759,381.0,-0.9914443602906119,3.0,4.968586387434555,6.0,2.0,0.0,11.0,11.0,0.20447848560002457,0.0,0.004033035247933726,0.005235602094240835,0.007711544185025864,1.8204784532536746,0.04931954608624209,6813.0,1.1212,1.1958,1.1463284916201117
6141de9c3ac25c70a5c6c96b,0.3851,Mo63 S126,16.0,24.666666666666668,42.0,189.0,1.9950225247287592,14.81829839810725,9.203535329069004,2.416933336003759,372.0,-0.9775503658998795,2.6666666666666665,4.936507936507935,6.0,2.0,0.0,11.0,10.0,0.20362666199800686,0.0,0.003120526358340306,0.005291005291005289,0.008302551953293692,2.8853900817779268,0.04891381934034082,6534.0,0.0938999999999999,0.537,0.37681101928374655
6141dea49cbada84a8676a6f,1.8092,Mo63 W1 Se2 S126,16.0,25.020833333333332,74.0,192.0,2.062633708531411,14.81829839810725,9.204493652765017,2.416933336003759,384.0,-1.0,3.0,5.0,6.0,2.0,0.0,11.0,11.0,0.2044595166323097,0.0,0.004011523522002345,0.005208333333333331,0.007601952955995299,1.8204784532536746,0.049315845839678185,6912.0,1.8056,1.8104,1.8084216666666666
6141dea5baaf234b352903f0,1.1081,Mo63 W1 S126,16.0,24.926315789473684,74.0,190.0,2.031392023881028,14.81829839810725,9.203020783974777,2.416933336003759,378.0,-0.9831571611104665,3.0,4.936842105263158,6.0,2.0,0.0,11.0,11.0,0.20449343054607935,0.0,0.004055166591169985,0.005263157894736839,0.00776074497063582,1.8204784532536746,0.04932051936269592,6714.0,0.6457999999999999,1.1271,1.0590126315789474
6141deab4e27a1844a5f02e2,1.1446,Mo63 W1 Se1 S126,16.0,24.973821989528794,74.0,191.0,2.0470128662062193,14.81829839810725,9.203690445228663,2.416933336003759,381.0,-0.9914443602906119,3.0,4.968586387434555,6.0,2.0,0.0,11.0,11.0,0.20447848560002427,0.0,0.004033035247933726,0.005235602094240835,0.007711544185025864,1.8204784532536746,0.049319546086242096,6813.0,1.1212,1.1958,1.1463284916201117
6141deaf31cf3ef3d4a9f014,0.3563,Mo63 Se1 S126,16.0,24.71578947368421,42.0,190.0,2.01064336705395,14.81829839810725,9.20470522978055,2.416933336003759,375.0,-0.9853003294753762,2.6666666666666665,4.968421052631579,6.0,2.0,0.0,11.0,10.0,0.20360756187407916,0.0,0.0031031429615504783,0.00526315789473684,0.008170708138232579,2.8853900817779268,0.04891994433696169,6633.0,0.1244,0.4337999999999999,0.37523746438746436
6141deb79cbada84a8676a71,1.8062,Mo63 W1 Se2 S126,16.0,25.020833333333332,74.0,192.0,2.062633708531411,14.81829839810725,9.204493652765015,2.416933336003759,384.0,-1.0,3.0,5.0,6.0,2.0,0.0,11.0,11.0,0.2044595166323097,0.0,0.004011523522002345,0.005208333333333331,0.007601952955995299,1.8204784532536746,0.04931584583967819,6912.0,1.8056,1.8104,1.8084216666666666
6141debd4e27a1844a5f02e4,1.1454,Mo63 W1 Se1 S126,16.0,24.973821989528794,74.0,191.0,2.0470128662062193,14.81829839810725,9.20369044517016,2.416933336003759,381.0,-0.9914443602906119,3.0,4.968586387434555,6.0,2.0,0.0,11.0,11.0,0.20447848560002446,0.0,0.004033035247933726,0.005235602094240836,0.007711544185025864,1.8204784532536746,0.049319546086242096,6813.0,1.1212,1.1958,1.1463284916201117
6141dec131cf3ef3d4a9f016,0.3883999999999999,Mo63 Se1 S126,16.0,24.71578947368421,42.0,190.0,2.01064336705395,14.81829839810725,9.204408485125414,2.416933336003759,375.0,-0.9853003294753762,2.6666666666666665,4.968421052631579,6.0,2.0,0.0,11.0,10.0,0.20361715375501616,0.0,0.0031036280812759514,0.005263157894736839,0.008244474761860337,2.8853900817779268,0.048919944336961695,6633.0,0.1244,0.4337999999999999,0.37523746438746436
6141dece4e27a1844a5f02e6,1.1451,Mo63 W1 Se1 S126,16.0,24.973821989528794,74.0,191.0,2.0470128662062193,14.81829839810725,9.203690445156266,2.416933336003759,381.0,-0.9914443602906119,3.0,4.968586387434555,6.0,2.0,0.0,11.0,11.0,0.20447848560002424,0.0,0.004033035247933726,0.005235602094240836,0.007711544185025864,1.8204784532536746,0.049319546086242096,6813.0,1.1212,1.1958,1.1463284916201117
6141dedf9cbada84a8676a73,1.8067,Mo63 W1 Se2 S126,16.0,25.020833333333332,74.0,192.0,2.062633708531411,14.81829839810725,9.204493652765015,2.416933336003759,384.0,-1.0,3.0,5.0,6.0,2.0,0.0,11.0,11.0,0.2044595166323097,0.0,0.004011523522002345,0.005208333333333331,0.007601952955995299,1.8204784532536746,0.04931584583967819,6912.0,1.8056,1.8104,1.8084216666666666
6141dee04e27a1844a5f02e8,1.1495,Mo63 W1 Se1 S126,16.0,24.973821989528794,74.0,191.0,2.0470128662062193,14.81829839810725,9.20369044512728,2.416933336003759,381.0,-0.9914443602906119,3.0,4.968586387434555,6.0,2.0,0.0,11.0,11.0,0.2044784856000243,0.0,0.004033035247933726,0.005235602094240836,0.007711544185025864,1.8204784532536746,0.049319546086242096,6813.0,1.1212,1.1958,1.1463284916201117
6141deed31cf3ef3d4a9f01a,0.3454,Mo63 Se1 S126,16.0,24.71578947368421,42.0,190.0,2.01064336705395,14.81829839810725,9.204408485122052,2.416933336003759,375.0,-0.9853003294753762,2.6666666666666665,4.968421052631579,6.0,2.0,0.0,11.0,10.0,0.20361715375501682,0.0,0.0031036280812759514,0.005263157894736841,0.008244474761860337,2.8853900817779268,0.048919944336961695,6633.0,0.1244,0.4337999999999999,0.37523746438746436
6141def2baaf234b352903f6,1.093,Mo63 W1 S126,16.0,24.926315789473684,74.0,190.0,2.031392023881028,14.81829839810725,9.202859084004444,2.416933336003759,378.0,-0.9831571611104665,3.0,4.936842105263158,6.0,2.0,0.0,11.0,11.0,0.20449575116243507,0.0,0.004055071481932315,0.005263157894736839,0.007797538150332789,1.8204784532536746,0.04932051936269592,6714.0,0.6457999999999999,1.1271,1.0590126315789474
6141df06baaf234b352903f8,0.6524,Mo63 W1 S126,16.0,24.926315789473684,74.0,190.0,2.031392023881028,14.81829839810725,9.202607939300906,2.416933336003759,378.0,-0.979463264802814,3.0,4.940350877192982,6.0,2.0,0.0,11.0,11.0,0.20451431609328075,0.0,0.004054792094874228,0.005263157894736839,0.007811830595938936,1.8375687735469761,0.049336053630758936,6720.0,0.6457999999999999,1.1271,1.0590126315789474
6141df0d4e27a1844a5f02ec,1.1467,Mo63 W1 Se1 S126,16.0,24.973821989528794,74.0,191.0,2.0470128662062193,14.81829839810725,9.203690445134214,2.416933336003759,381.0,-0.9914443602906119,3.0,4.968586387434555,6.0,2.0,0.0,11.0,11.0,0.20447848560002435,0.0,0.004033035247933726,0.005235602094240836,0.007711544185025864,1.8204784532536746,0.049319546086242096,6813.0,1.1212,1.1958,1.1463284916201117
6141df1231cf3ef3d4a9f01c,0.4167,Mo63 Se1 S126,16.0,24.71578947368421,42.0,190.0,2.01064336705395,14.81829839810725,9.204483655222328,2.416933336003759,375.0,-0.9853003294753762,2.6666666666666665,4.968421052631579,6.0,2.0,0.0,11.0,10.0,0.20361892184366817,0.0,0.0031034775912119257,0.005263157894736839,0.008216286576687187,2.8853900817779268,0.048919944336961695,6633.0,0.1244,0.4337999999999999,0.37523746438746436
6141df123ac25c70a5c6c96f,0.3992,Mo63 S126,16.0,24.666666666666668,42.0,189.0,1.9950225247287592,14.81829839810725,9.203647080608993,2.416933336003759,372.0,-0.9751401887324205,2.6,4.934391534391534,6.0,2.0,0.0,11.0,10.0,0.20364207399416873,0.0,0.0031224606181424193,0.005291005291005289,0.008316110603147301,2.8853900817779268,0.04891381934034082,6536.0,0.0938999999999999,0.537,0.37681101928374655
6141df1bbaaf234b352903fa,1.0845,Mo63 W1 S126,16.0,24.926315789473684,74.0,190.0,2.031392023881028,14.81829839810725,9.202712171645478,2.416933336003759,378.0,-0.9831571611104665,3.0,4.936842105263158,6.0,2.0,0.0,11.0,11.0,0.20450039239514645,0.0,0.004055082910099435,0.005263157894736839,0.0077992744253634425,1.8204784532536746,0.04932051936269592,6714.0,0.6457999999999999,1.1271,1.0590126315789474
6141df3431cf3ef3d4a9f01e,0.3528,Mo63 Se1 S126,16.0,24.71578947368421,42.0,190.0,2.01064336705395,14.81829839810725,9.204447766359582,2.416933336003759,375.0,-0.9853003294753762,2.6666666666666665,4.968421052631578,6.0,2.0,0.0,11.0,10.0,0.20361251252230475,0.0,0.0031043870361096393,0.005263157894736839,0.008219141586916945,2.8853900817779268,0.048919944336961695,6633.0,0.1244,0.4337999999999999,0.37523746438746436
6141df3d3ac25c70a5c6c971,0.4195,Mo63 S126,16.0,24.666666666666668,42.0,189.0,1.9950225247287592,14.81829839810725,9.203738534298727,2.416933336003759,372.0,-0.9775503658998795,2.6666666666666665,4.936507936507935,6.0,2.0,0.0,11.0,10.0,0.20362375828858503,0.0,0.003120528820037479,0.005291005291005288,0.008263948152997575,2.8853900817779268,0.04891381934034083,6534.0,0.0938999999999999,0.537,0.37681101928374655
6141df554e27a1844a5f02f2,1.1369,Mo63 W1 Se1 S126,16.0,24.973821989528794,74.0,191.0,2.0470128662062193,14.81829839810725,9.20369044524115,2.416933336003759,381.0,-0.9914443602906119,3.0,4.968586387434555,6.0,2.0,0.0,11.0,11.0,0.20447848560002427,0.0,0.004033035247933726,0.005235602094240835,0.007711544185025864,1.8204784532536746,0.049319546086242096,6813.0,1.1212,1.1958,1.1463284916201117
6141df5aee0a3fd43fb47c89,0.3812,Mo63 Se2 S126,16.0,24.76439790575916,42.0,191.0,2.0262642093791414,14.81829839810725,9.205343140272404,2.416933336003759,378.0,-0.9933560245064674,2.6666666666666665,5.0,6.0,2.0,0.0,11.0,10.0,0.20360265847867606,0.0,0.0030865806740578215,0.005235602094240836,0.008123386636999748,2.8853900817779268,0.04892318732941323,6732.0,0.2535,0.4375,0.36620928381962864
6141df5fbaaf234b352903fc,1.0944,Mo63 W1 S126,16.0,24.926315789473684,74.0,190.0,2.031392023881028,14.81829839810725,9.202859084305063,2.416933336003759,378.0,-0.9831571611104665,3.0,4.936842105263158,6.0,2.0,0.0,11.0,11.0,0.20449575116243512,0.0,0.004055071481932315,0.005263157894736841,0.0077975381503327884,1.8204784532536746,0.04932051936269592,6714.0,0.6457999999999999,1.1271,1.0590126315789474
6141df6431cf3ef3d4a9f022,0.3925999999999999,Mo63 Se1 S126,16.0,24.71578947368421,42.0,190.0,2.01064336705395,14.81829839810725,9.204771430298505,2.416933336003759,375.0,-0.9853003294753762,2.6666666666666665,4.968421052631579,6.0,2.0,0.0,11.0,10.0,0.20360756187407927,0.0,0.0031031537672274972,0.005263157894736839,0.008169279475794527,2.8853900817779268,0.0489199443369617,6633.0,0.1244,0.4337999999999999,0.37523746438746436
6141df699cbada84a8676a7d,1.8068,Mo63 W1 Se2 S126,16.0,25.020833333333332,74.0,192.0,2.062633708531411,14.81829839810725,9.204493652765015,2.416933336003759,384.0,-1.0,3.0,5.0,6.0,2.0,0.0,11.0,11.0,0.2044595166323097,0.0,0.004011523522002345,0.005208333333333331,0.007601952955995299,1.8204784532536746,0.049315845839678185,6912.0,1.8056,1.8104,1.8084216666666666
6141df74baaf234b352903fe,1.1074,Mo63 W1 S126,16.0,24.926315789473684,74.0,190.0,2.031392023881028,14.81829839810725,9.203130769215154,2.416933336003759,378.0,-0.9831571611104665,3.0,4.936842105263158,6.0,2.0,0.0,11.0,11.0,0.20449203817626602,0.0,0.004054773871902171,0.005263157894736839,0.007755110086250584,1.8204784532536746,0.04932051936269593,6714.0,0.6457999999999999,1.1271,1.0590126315789474
6141df794e27a1844a5f02f6,1.1483,Mo63 W1 Se1 S126,16.0,24.973821989528794,74.0,191.0,2.0470128662062193,14.81829839810725,9.203690445078662,2.416933336003759,381.0,-0.9914443602906119,3.0,4.968586387434555,6.0,2.0,0.0,11.0,11.0,0.2044784856000246,0.0,0.004033035247933726,0.005235602094240835,0.007711544185025864,1.8204784532536746,0.049319546086242096,6813.0,1.1212,1.1958,1.1463284916201117
6141dfb331cf3ef3d4a9f028,0.4063,Mo63 Se1 S126,16.0,24.71578947368421,42.0,190.0,2.01064336705395,14.81829839810725,9.204314043513627,2.416933336003759,375.0,-0.9829536387785947,2.6,4.966315789473684,6.0,2.0,0.0,11.0,10.0,0.2036388128410032,0.0,0.0031057102812884056,0.005263157894736839,0.008270822561203069,2.8853900817779268,0.048919944336961695,6635.0,0.1244,0.4337999999999999,0.37523746438746436